
     Program PWSCF v.6.6 starts on  2Mar2021 at 10:22:17 

     This program is part of the open-source Quantum ESPRESSO suite
     for quantum simulation of materials; please cite
         "P. Giannozzi et al., J. Phys.:Condens. Matter 21 395502 (2009);
         "P. Giannozzi et al., J. Phys.:Condens. Matter 29 465901 (2017);
          URL http://www.quantum-espresso.org", 
     in publications or presentations arising from this work. More details at
     http://www.quantum-espresso.org/quote

     Parallel version (MPI & OpenMP), running on     960 processor cores
     Number of MPI processes:                20
     Threads/MPI process:                    48

     MPI processes distributed on     1 nodes
     R & G space division:  proc/nbgrp/npool/nimage =      20
     Fft bands division:     nmany     =       1
     Reading input from bwse2.relax.aa.in

     Current dimensions of program PWSCF are:
     Max number of different atomic species (ntypx) = 10
     Max number of k-points (npk) =  40000
     Max angular momentum in pseudopotentials (lmaxx) =  3

     IMPORTANT: XC functional enforced from input :
     Exchange-correlation= VDW-DF-CX
                           (   1   4  27   0   1   0   0)
     Any further DFT definition will be discarded
     Please, verify this is what you really want


     Subspace diagonalization in iterative solution of the eigenvalue problem:
     a serial algorithm will be used


     Parallelization info
     --------------------
     sticks:   dense  smooth     PW     G-vecs:    dense   smooth      PW
     Min         310     310     83                43606    43606    6173
     Max         311     311     84                43613    43613    6186
     Sum        6205    6205   1675               872179   872179  123571



     bravais-lattice index     =            4
     lattice parameter (alat)  =      27.3884  a.u.
     unit-cell volume          =   39283.8561 (a.u.)^3
     number of atoms/cell      =          114
     number of atomic types    =            2
     number of electrons       =       988.00
     number of Kohn-Sham states=          494
     kinetic-energy cutoff     =      30.0000  Ry
     charge density cutoff     =     120.0000  Ry
     convergence threshold     =      1.0E-06
     mixing beta               =       0.7000
     number of iterations used =            8  plain     mixing
     Exchange-correlation= VDW-DF-CX
                           (   1   4  27   0   1   0   0)
     nstep                     =           50


     celldm(1)=  27.388441  celldm(2)=   0.000000  celldm(3)=   2.207911
     celldm(4)=   0.000000  celldm(5)=   0.000000  celldm(6)=   0.000000

     crystal axes: (cart. coord. in units of alat)
               a(1) = (   1.000000   0.000000   0.000000 )  
               a(2) = (  -0.500000   0.866025   0.000000 )  
               a(3) = (   0.000000   0.000000   2.207911 )  

     reciprocal axes: (cart. coord. in units 2 pi/alat)
               b(1) = (  1.000000  0.577350 -0.000000 )  
               b(2) = (  0.000000  1.154701  0.000000 )  
               b(3) = (  0.000000 -0.000000  0.452917 )  


     PseudoPot. # 1 for W  read from file:
     ../pseudo/W_pbe_v1.2.uspp.F.UPF
     MD5 check sum: 9c083fa34c2a2ea0f02f1f893e16e1c8
     Pseudo is Ultrasoft + core correction, Zval = 14.0
     Generated by new atomic code, or converted to UPF format
     Using radial grid of  923 points,  8 beta functions with: 
                l(1) =   0
                l(2) =   0
                l(3) =   0
                l(4) =   1
                l(5) =   1
                l(6) =   2
                l(7) =   2
                l(8) =   3
     Q(r) pseudized with  6 coefficients,  rinner =    1.350   1.350   1.350
                                                       1.350   1.350   1.350
                                                       1.350

     PseudoPot. # 2 for Se read from file:
     ../pseudo/Se_pbe_v1.uspp.F.UPF
     MD5 check sum: 1b3568f3a8ae88f9a2a0ad0698632c85
     Pseudo is Ultrasoft + core correction, Zval =  6.0
     Generated by new atomic code, or converted to UPF format
     Using radial grid of  877 points,  6 beta functions with: 
                l(1) =   0
                l(2) =   0
                l(3) =   1
                l(4) =   1
                l(5) =   2
                l(6) =   2
     Q(r) pseudized with  8 coefficients,  rinner =    1.300   1.300   1.300
                                                       1.300   1.300

     atomic species   valence    mass     pseudopotential
        W             14.00   183.84000     W ( 1.00)
        Se             6.00    78.96000     Se( 1.00)

      3 Sym. Ops. (no inversion) found


                                    s                        frac. trans.

      isym =  1     identity                                     

 cryst.   s( 1) = (     1          0          0      )
                  (     0          1          0      )
                  (     0          0          1      )

 cart.    s( 1) = (  1.0000000  0.0000000  0.0000000 )
                  (  0.0000000  1.0000000  0.0000000 )
                  (  0.0000000  0.0000000  1.0000000 )


      isym =  2     120 deg rotation - cryst. axis [0,0,1]       

 cryst.   s( 2) = (     0          1          0      )
                  (    -1         -1          0      )
                  (     0          0          1      )

 cart.    s( 2) = ( -0.5000000 -0.8660254  0.0000000 )
                  (  0.8660254 -0.5000000  0.0000000 )
                  (  0.0000000  0.0000000  1.0000000 )


      isym =  3     120 deg rotation - cryst. axis [0,0,-1]      

 cryst.   s( 3) = (    -1         -1          0      )
                  (     1          0          0      )
                  (     0          0          1      )

 cart.    s( 3) = ( -0.5000000  0.8660254  0.0000000 )
                  ( -0.8660254 -0.5000000  0.0000000 )
                  (  0.0000000  0.0000000  1.0000000 )


     point group C_3 (3)    
     there are  3 classes
     the character table:

       E     C3    C3^2 
A      1.00  1.00  1.00
E      1.00 -0.50 -0.50
E*     1.00 -0.50 -0.50
     imaginary part
A      0.00  0.00  0.00
E      0.00  0.87 -0.87
E*     0.00 -0.87  0.87

     the symmetry operations in each class and the name of the first element:

     E        1
          identity                                               
     C3       2
          120 deg rotation - cryst. axis [0,0,1]                 
     C3^2     3
          120 deg rotation - cryst. axis [0,0,-1]                

   Cartesian axes

     site n.     atom                  positions (alat units)
         1           W   tau(   1) = (  -0.2894730   0.7748648   0.0000000  )
         2           W   tau(   2) = (  -0.2631570   0.5469634   0.0000000  )
         3           W   tau(   3) = (  -0.0789470   0.6837042   0.0000000  )
         4           W   tau(   4) = (   0.1052631   0.8204451   0.0000000  )
         5           W   tau(   5) = (  -0.0526310   0.4558028   0.0000000  )
         6           W   tau(   6) = (   0.1315789   0.5925436   0.0000000  )
         7           W   tau(   7) = (   0.3157894   0.7292845   0.0000000  )
         8           W   tau(   8) = (  -0.0263150   0.2279014   0.0000000  )
         9           W   tau(   9) = (   0.1578947   0.3646422   0.0000000  )
        10           W   tau(  10) = (   0.3421052   0.5013831   0.0000000  )
        11           W   tau(  11) = (   0.5263157   0.6381239   0.0000000  )
        12           W   tau(  12) = (   0.0000000   0.0000000   0.0000000  )
        13           W   tau(  13) = (   0.1842105   0.1367408   0.0000000  )
        14           W   tau(  14) = (   0.3684210   0.2734817   0.0000000  )
        15           W   tau(  15) = (   0.5526315   0.4102225   0.0000000  )
        16           W   tau(  16) = (   0.3947368   0.0455802   0.0000000  )
        17           W   tau(  17) = (   0.5789473   0.1823211   0.0000000  )
        18           W   tau(  18) = (   0.7631578   0.3190619   0.0000000  )
        19           W   tau(  19) = (   0.7894736   0.0911605   0.0000000  )
        20           W   tau(  20) = (   0.8157894   0.1367408   0.4240467  )
        21           W   tau(  21) = (   0.6052631   0.0455802   0.4240467  )
        22           W   tau(  22) = (   0.6315789   0.2734817   0.4240467  )
        23           W   tau(  23) = (   0.4210526   0.1823211   0.4240467  )
        24           W   tau(  24) = (   0.2105263   0.0911605   0.4240467  )
        25           W   tau(  25) = (   0.0000000   0.0000000   0.4240467  )
        26           W   tau(  26) = (   0.6578947   0.5013831   0.4240467  )
        27           W   tau(  27) = (   0.4473684   0.4102225   0.4240467  )
        28           W   tau(  28) = (   0.2368421   0.3190619   0.4240467  )
        29           W   tau(  29) = (   0.0263157   0.2279014   0.4240467  )
        30           W   tau(  30) = (   0.4736842   0.6381239   0.4240467  )
        31           W   tau(  31) = (   0.2631578   0.5469634   0.4240467  )
        32           W   tau(  32) = (   0.0526315   0.4558028   0.4240467  )
        33           W   tau(  33) = (  -0.1578940   0.3646422   0.4240467  )
        34           W   tau(  34) = (   0.2894736   0.7748648   0.4240467  )
        35           W   tau(  35) = (   0.0789473   0.6837042   0.4240467  )
        36           W   tau(  36) = (  -0.1315780   0.5925436   0.4240467  )
        37           W   tau(  37) = (  -0.1052630   0.8204451   0.4240467  )
        38           W   tau(  38) = (  -0.3157890   0.7292845   0.4240467  )
        39           Se  tau(  39) = (  -0.3421050   0.6533174   0.1158264  )
        40           Se  tau(  40) = (  -0.1578940   0.7900582   0.1158264  )
        41           Se  tau(  41) = (  -0.1315780   0.5621568   0.1158264  )
        42           Se  tau(  42) = (   0.0526315   0.6988976   0.1158264  )
        43           Se  tau(  43) = (   0.2368421   0.8356385   0.1158264  )
        44           Se  tau(  44) = (  -0.1052630   0.3342554   0.1158264  )
        45           Se  tau(  45) = (   0.0789473   0.4709962   0.1158264  )
        46           Se  tau(  46) = (   0.2631578   0.6077371   0.1158264  )
        47           Se  tau(  47) = (   0.4473684   0.7444779   0.1158264  )
        48           Se  tau(  48) = (   0.1052631   0.2430948   0.1158264  )
        49           Se  tau(  49) = (   0.2894736   0.3798357   0.1158264  )
        50           Se  tau(  50) = (   0.4736842   0.5165765   0.1158264  )
        51           Se  tau(  51) = (   0.1315789   0.0151934   0.1158264  )
        52           Se  tau(  52) = (   0.3157894   0.1519342   0.1158264  )
        53           Se  tau(  53) = (   0.5000000   0.2886751   0.1158264  )
        54           Se  tau(  54) = (   0.6842105   0.4254159   0.1158264  )
        55           Se  tau(  55) = (   0.5263157   0.0607737   0.1158264  )
        56           Se  tau(  56) = (   0.7105263   0.1975145   0.1158264  )
        57           Se  tau(  57) = (   0.9210526   0.1063539   0.1158264  )
        58           Se  tau(  58) = (  -0.3421050   0.6533174  -0.1158260  )
        59           Se  tau(  59) = (  -0.1578940   0.7900582  -0.1158260  )
        60           Se  tau(  60) = (  -0.1315780   0.5621568  -0.1158260  )
        61           Se  tau(  61) = (   0.0526315   0.6988976  -0.1158260  )
        62           Se  tau(  62) = (   0.2368421   0.8356385  -0.1158260  )
        63           Se  tau(  63) = (  -0.1052630   0.3342554  -0.1158260  )
        64           Se  tau(  64) = (   0.0789473   0.4709962  -0.1158260  )
        65           Se  tau(  65) = (   0.2631578   0.6077371  -0.1158260  )
        66           Se  tau(  66) = (   0.4473684   0.7444779  -0.1158260  )
        67           Se  tau(  67) = (   0.1052631   0.2430948  -0.1158260  )
        68           Se  tau(  68) = (   0.2894736   0.3798357  -0.1158260  )
        69           Se  tau(  69) = (   0.4736842   0.5165765  -0.1158260  )
        70           Se  tau(  70) = (   0.1315789   0.0151934  -0.1158260  )
        71           Se  tau(  71) = (   0.3157894   0.1519342  -0.1158260  )
        72           Se  tau(  72) = (   0.5000000   0.2886751  -0.1158260  )
        73           Se  tau(  73) = (   0.6842105   0.4254159  -0.1158260  )
        74           Se  tau(  74) = (   0.5263157   0.0607737  -0.1158260  )
        75           Se  tau(  75) = (   0.7105263   0.1975145  -0.1158260  )
        76           Se  tau(  76) = (   0.9210526   0.1063539  -0.1158260  )
        77           Se  tau(  77) = (   0.8684210   0.0151934   0.5398731  )
        78           Se  tau(  78) = (   0.6842105   0.1519342   0.5398731  )
        79           Se  tau(  79) = (   0.4736842   0.0607737   0.5398731  )
        80           Se  tau(  80) = (   0.7105263   0.3798357   0.5398731  )
        81           Se  tau(  81) = (   0.5000000   0.2886751   0.5398731  )
        82           Se  tau(  82) = (   0.2894736   0.1975145   0.5398731  )
        83           Se  tau(  83) = (   0.0789473   0.1063539   0.5398731  )
        84           Se  tau(  84) = (   0.5263157   0.5165765   0.5398731  )
        85           Se  tau(  85) = (   0.3157894   0.4254159   0.5398731  )
        86           Se  tau(  86) = (   0.1052631   0.3342554   0.5398731  )
        87           Se  tau(  87) = (  -0.1052630   0.2430948   0.5398731  )
        88           Se  tau(  88) = (   0.5526315   0.7444779   0.5398731  )
        89           Se  tau(  89) = (   0.3421052   0.6533174   0.5398731  )
        90           Se  tau(  90) = (   0.1315789   0.5621568   0.5398731  )
        91           Se  tau(  91) = (  -0.0789470   0.4709962   0.5398731  )
        92           Se  tau(  92) = (   0.1578947   0.7900582   0.5398731  )
        93           Se  tau(  93) = (  -0.0526310   0.6988976   0.5398731  )
        94           Se  tau(  94) = (  -0.2631570   0.6077371   0.5398731  )
        95           Se  tau(  95) = (  -0.2368420   0.8356385   0.5398731  )
        96           Se  tau(  96) = (   0.8684210   0.0151934   0.3082202  )
        97           Se  tau(  97) = (   0.6842105   0.1519342   0.3082202  )
        98           Se  tau(  98) = (   0.4736842   0.0607737   0.3082202  )
        99           Se  tau(  99) = (   0.7105263   0.3798357   0.3082202  )
       100           Se  tau( 100) = (   0.5000000   0.2886751   0.3082202  )
       101           Se  tau( 101) = (   0.2894736   0.1975145   0.3082202  )
       102           Se  tau( 102) = (   0.0789473   0.1063539   0.3082202  )
       103           Se  tau( 103) = (   0.5263157   0.5165765   0.3082202  )
       104           Se  tau( 104) = (   0.3157894   0.4254159   0.3082202  )
       105           Se  tau( 105) = (   0.1052631   0.3342554   0.3082202  )
       106           Se  tau( 106) = (  -0.1052630   0.2430948   0.3082202  )
       107           Se  tau( 107) = (   0.5526315   0.7444779   0.3082202  )
       108           Se  tau( 108) = (   0.3421052   0.6533174   0.3082202  )
       109           Se  tau( 109) = (   0.1315789   0.5621568   0.3082202  )
       110           Se  tau( 110) = (  -0.0789470   0.4709962   0.3082202  )
       111           Se  tau( 111) = (   0.1578947   0.7900582   0.3082202  )
       112           Se  tau( 112) = (  -0.0526310   0.6988976   0.3082202  )
       113           Se  tau( 113) = (  -0.2631570   0.6077371   0.3082202  )
       114           Se  tau( 114) = (  -0.2368420   0.8356385   0.3082202  )

   Crystallographic axes

     site n.     atom                  positions (cryst. coord.)
         1           W   tau(   1) = (  0.1578954  0.8947368  0.0000000  )
         2           W   tau(   2) = (  0.0526325  0.6315789  0.0000000  )
         3           W   tau(   3) = (  0.3157898  0.7894736  0.0000000  )
         4           W   tau(   4) = (  0.5789473  0.9473684  0.0000000  )
         5           W   tau(   5) = (  0.2105269  0.5263157  0.0000000  )
         6           W   tau(   6) = (  0.4736841  0.6842104  0.0000000  )
         7           W   tau(   7) = (  0.7368420  0.8421052  0.0000000  )
         8           W   tau(   8) = (  0.1052639  0.2631579  0.0000000  )
         9           W   tau(   9) = (  0.3684210  0.4210525  0.0000000  )
        10           W   tau(  10) = (  0.6315789  0.5789473  0.0000000  )
        11           W   tau(  11) = (  0.8947367  0.7368420  0.0000000  )
        12           W   tau(  12) = (  0.0000000  0.0000000  0.0000000  )
        13           W   tau(  13) = (  0.2631578  0.1578947  0.0000000  )
        14           W   tau(  14) = (  0.5263157  0.3157895  0.0000000  )
        15           W   tau(  15) = (  0.7894736  0.4736841  0.0000000  )
        16           W   tau(  16) = (  0.4210525  0.0526315  0.0000000  )
        17           W   tau(  17) = (  0.6842104  0.2105263  0.0000000  )
        18           W   tau(  18) = (  0.9473683  0.3684209  0.0000000  )
        19           W   tau(  19) = (  0.8421051  0.1052631  0.0000000  )
        20           W   tau(  20) = (  0.8947367  0.1578947  0.1920579  )
        21           W   tau(  21) = (  0.6315788  0.0526315  0.1920579  )
        22           W   tau(  22) = (  0.7894736  0.3157895  0.1920579  )
        23           W   tau(  23) = (  0.5263157  0.2105263  0.1920579  )
        24           W   tau(  24) = (  0.2631578  0.1052631  0.1920579  )
        25           W   tau(  25) = (  0.0000000  0.0000000  0.1920579  )
        26           W   tau(  26) = (  0.9473684  0.5789473  0.1920579  )
        27           W   tau(  27) = (  0.6842105  0.4736841  0.1920579  )
        28           W   tau(  28) = (  0.4210526  0.3684209  0.1920579  )
        29           W   tau(  29) = (  0.1578946  0.2631579  0.1920579  )
        30           W   tau(  30) = (  0.8421052  0.7368420  0.1920579  )
        31           W   tau(  31) = (  0.5789473  0.6315789  0.1920579  )
        32           W   tau(  32) = (  0.3157894  0.5263157  0.1920579  )
        33           W   tau(  33) = (  0.0526323  0.4210525  0.1920579  )
        34           W   tau(  34) = (  0.7368420  0.8947368  0.1920579  )
        35           W   tau(  35) = (  0.4736841  0.7894736  0.1920579  )
        36           W   tau(  36) = (  0.2105272  0.6842104  0.1920579  )
        37           W   tau(  37) = (  0.3684212  0.9473684  0.1920579  )
        38           W   tau(  38) = (  0.1052636  0.8421052  0.1920579  )
        39           Se  tau(  39) = (  0.0350880  0.7543860  0.0524597  )
        40           Se  tau(  40) = (  0.2982463  0.9122806  0.0524597  )
        41           Se  tau(  41) = (  0.1929834  0.6491228  0.0524597  )
        42           Se  tau(  42) = (  0.4561402  0.8070174  0.0524597  )
        43           Se  tau(  43) = (  0.7192982  0.9649122  0.0524597  )
        44           Se  tau(  44) = (  0.0877194  0.3859649  0.0524597  )
        45           Se  tau(  45) = (  0.3508771  0.5438596  0.0524597  )
        46           Se  tau(  46) = (  0.6140350  0.7017544  0.0524597  )
        47           Se  tau(  47) = (  0.8771929  0.8596490  0.0524597  )
        48           Se  tau(  48) = (  0.2456139  0.2807017  0.0524597  )
        49           Se  tau(  49) = (  0.5087718  0.4385965  0.0524597  )
        50           Se  tau(  50) = (  0.7719298  0.5964912  0.0524597  )
        51           Se  tau(  51) = (  0.1403508  0.0175438  0.0524597  )
        52           Se  tau(  52) = (  0.4035087  0.1754385  0.0524597  )
        53           Se  tau(  53) = (  0.6666666  0.3333333  0.0524597  )
        54           Se  tau(  54) = (  0.9298245  0.4912280  0.0524597  )
        55           Se  tau(  55) = (  0.5614034  0.0701754  0.0524597  )
        56           Se  tau(  56) = (  0.8245613  0.2280701  0.0524597  )
        57           Se  tau(  57) = (  0.9824561  0.1228069  0.0524597  )
        58           Se  tau(  58) = (  0.0350880  0.7543860 -0.0524595  )
        59           Se  tau(  59) = (  0.2982463  0.9122806 -0.0524595  )
        60           Se  tau(  60) = (  0.1929834  0.6491228 -0.0524595  )
        61           Se  tau(  61) = (  0.4561402  0.8070174 -0.0524595  )
        62           Se  tau(  62) = (  0.7192982  0.9649122 -0.0524595  )
        63           Se  tau(  63) = (  0.0877194  0.3859649 -0.0524595  )
        64           Se  tau(  64) = (  0.3508771  0.5438596 -0.0524595  )
        65           Se  tau(  65) = (  0.6140350  0.7017544 -0.0524595  )
        66           Se  tau(  66) = (  0.8771929  0.8596490 -0.0524595  )
        67           Se  tau(  67) = (  0.2456139  0.2807017 -0.0524595  )
        68           Se  tau(  68) = (  0.5087718  0.4385965 -0.0524595  )
        69           Se  tau(  69) = (  0.7719298  0.5964912 -0.0524595  )
        70           Se  tau(  70) = (  0.1403508  0.0175438 -0.0524595  )
        71           Se  tau(  71) = (  0.4035087  0.1754385 -0.0524595  )
        72           Se  tau(  72) = (  0.6666666  0.3333333 -0.0524595  )
        73           Se  tau(  73) = (  0.9298245  0.4912280 -0.0524595  )
        74           Se  tau(  74) = (  0.5614034  0.0701754 -0.0524595  )
        75           Se  tau(  75) = (  0.8245613  0.2280701 -0.0524595  )
        76           Se  tau(  76) = (  0.9824561  0.1228069 -0.0524595  )
        77           Se  tau(  77) = (  0.8771929  0.0175438  0.2445176  )
        78           Se  tau(  78) = (  0.7719298  0.1754385  0.2445176  )
        79           Se  tau(  79) = (  0.5087719  0.0701754  0.2445176  )
        80           Se  tau(  80) = (  0.9298245  0.4385965  0.2445176  )
        81           Se  tau(  81) = (  0.6666666  0.3333333  0.2445176  )
        82           Se  tau(  82) = (  0.4035086  0.2280701  0.2445176  )
        83           Se  tau(  83) = (  0.1403508  0.1228069  0.2445176  )
        84           Se  tau(  84) = (  0.8245613  0.5964912  0.2445176  )
        85           Se  tau(  85) = (  0.5614034  0.4912280  0.2445176  )
        86           Se  tau(  86) = (  0.2982455  0.3859649  0.2445176  )
        87           Se  tau(  87) = (  0.0350878  0.2807017  0.2445176  )
        88           Se  tau(  88) = (  0.9824560  0.8596490  0.2445176  )
        89           Se  tau(  89) = (  0.7192982  0.7543860  0.2445176  )
        90           Se  tau(  90) = (  0.4561403  0.6491228  0.2445176  )
        91           Se  tau(  91) = (  0.1929828  0.5438596  0.2445176  )
        92           Se  tau(  92) = (  0.6140350  0.9122806  0.2445176  )
        93           Se  tau(  93) = (  0.3508777  0.8070174  0.2445176  )
        94           Se  tau(  94) = (  0.0877202  0.7017544  0.2445176  )
        95           Se  tau(  95) = (  0.2456141  0.9649122  0.2445176  )
        96           Se  tau(  96) = (  0.8771929  0.0175438  0.1395981  )
        97           Se  tau(  97) = (  0.7719298  0.1754385  0.1395981  )
        98           Se  tau(  98) = (  0.5087719  0.0701754  0.1395981  )
        99           Se  tau(  99) = (  0.9298245  0.4385965  0.1395981  )
       100           Se  tau( 100) = (  0.6666666  0.3333333  0.1395981  )
       101           Se  tau( 101) = (  0.4035086  0.2280701  0.1395981  )
       102           Se  tau( 102) = (  0.1403508  0.1228069  0.1395981  )
       103           Se  tau( 103) = (  0.8245613  0.5964912  0.1395981  )
       104           Se  tau( 104) = (  0.5614034  0.4912280  0.1395981  )
       105           Se  tau( 105) = (  0.2982455  0.3859649  0.1395981  )
       106           Se  tau( 106) = (  0.0350878  0.2807017  0.1395981  )
       107           Se  tau( 107) = (  0.9824560  0.8596490  0.1395981  )
       108           Se  tau( 108) = (  0.7192982  0.7543860  0.1395981  )
       109           Se  tau( 109) = (  0.4561403  0.6491228  0.1395981  )
       110           Se  tau( 110) = (  0.1929828  0.5438596  0.1395981  )
       111           Se  tau( 111) = (  0.6140350  0.9122806  0.1395981  )
       112           Se  tau( 112) = (  0.3508777  0.8070174  0.1395981  )
       113           Se  tau( 113) = (  0.0877202  0.7017544  0.1395981  )
       114           Se  tau( 114) = (  0.2456141  0.9649122  0.1395981  )

     number of k points=     1
                       cart. coord. in units 2pi/alat
        k(    1) = (  -0.5000000  -0.8660254  -0.2264584), wk =   2.0000000

                       cryst. coord.
        k(    1) = (  -0.5000000  -0.5000000  -0.5000000), wk =   2.0000000

     Dense  grid:   872179 G-vectors     FFT dimensions: (  96,  96, 216)

     Dynamical RAM for                 wfc:      41.08 MB

     Dynamical RAM for     wfc (w. buffer):      41.08 MB

     Dynamical RAM for           str. fact:       1.33 MB

     Dynamical RAM for           local pot:       0.00 MB

     Dynamical RAM for          nlocal pot:     195.93 MB

     Dynamical RAM for                qrad:       4.23 MB

     Dynamical RAM for          rho,v,vnew:       4.32 MB

     Dynamical RAM for               rhoin:       1.44 MB

     Dynamical RAM for            rho*nmix:      10.65 MB

     Dynamical RAM for           G-vectors:       2.83 MB

     Dynamical RAM for          h,s,v(r/c):      44.68 MB

     Dynamical RAM for          <psi|beta>:      17.76 MB

     Dynamical RAM for                 psi:      82.16 MB

     Dynamical RAM for                hpsi:      82.16 MB

     Dynamical RAM for                spsi:      82.16 MB

     Dynamical RAM for      wfcinit/wfcrot:     147.31 MB

     Dynamical RAM for           addusdens:     302.09 MB

     Dynamical RAM for          addusforce:     402.85 MB

     Estimated static dynamical RAM per process >     267.66 MB

     Estimated max dynamical RAM per process >     670.51 MB

     Estimated total dynamical RAM >      13.10 GB
 ----2D----2D----2D----2D----2D----2D----2D----2D----2D----2D----2D----2D
  The code is running with the 2D cutoff
  Please refer to:
  Sohier, T., Calandra, M., & Mauri, F. (2017), 
  Density functional perturbation theory for gated two-dimensional heterostructures:
  Theoretical developments and application to flexural phonons in graphene.
  Physical Review B, 96(7), 75448. https://doi.org/10.1103/PhysRevB.96.075448
 ----2D----2D----2D----2D----2D----2D----2D----2D----2D----2D----2D----2D

     Check: negative core charge=   -0.000001

     Initial potential from superposition of free atoms

     starting charge  984.18178, renormalised to  988.00000

     negative rho (up, down):  2.530E+00 0.000E+00


     %%%%%%%%%%%%%%%%%%%%%%%%%%%%%%%%%%%%%%%%%%%%%%%%%%%%%%%%%%%%%%%%%%%%%%%%
     %                                                                      %
     % You are using vdW-DF, which was implemented by the Thonhauser group. %
     % Please cite the following two papers that made this development      %
     % possible and the two reviews that describe the various versions:     %
     %                                                                      %
     %   T. Thonhauser et al., PRL 115, 136402 (2015).                      %
     %   T. Thonhauser et al., PRB 76, 125112 (2007).                       %
     %   K. Berland et al., Rep. Prog. Phys. 78, 066501 (2015).             %
     %   D.C. Langreth et al., J. Phys.: Condens. Matter 21, 084203 (2009). %
     %                                                                      %
     %                                                                      %
     % If you are calculating the stress with vdW-DF, please also cite:     %
     %                                                                      %
     %   R. Sabatini et al., J. Phys.: Condens. Matter 24, 424209 (2012).   %
     %                                                                      %
     %%%%%%%%%%%%%%%%%%%%%%%%%%%%%%%%%%%%%%%%%%%%%%%%%%%%%%%%%%%%%%%%%%%%%%%%


     Carrying out vdW-DF run using the following parameters:
     Nqs    =  20  Npoints =  1024  r_max =  100.000
     q_mesh =  0.00001000  0.04494208  0.09755937  0.15916263
               0.23128650  0.31572767  0.41458969  0.53033537
               0.66584808  0.82450364  1.01025438  1.22772762
               1.48234092  1.78043706  2.12944203  2.53805004
               3.01644009  3.57652955  4.23227104  5.00000000


     -----------------------------------------------
     Non-local corr. energy    =      40.65446340 Ry
     -----------------------------------------------

     Starting wfcs are  798 randomized atomic wfcs

     total cpu time spent up to now is      311.6 secs

     Self-consistent Calculation

     iteration #  1     ecut=    30.00 Ry     beta= 0.70
     Davidson diagonalization with overlap
     ethr =  1.00E-02,  avg # of iterations =  2.0

     Threshold (ethr) on eigenvalues was too large:
     Diagonalizing with lowered threshold

     Davidson diagonalization with overlap
     ethr =  1.99E-04,  avg # of iterations =  4.0

     negative rho (up, down):  2.489E+00 0.000E+00


     -----------------------------------------------
     Non-local corr. energy    =      40.70066622 Ry
     -----------------------------------------------


     total cpu time spent up to now is     1389.0 secs

     total energy              =   -9341.55677695 Ry
     estimated scf accuracy    <       2.67314669 Ry

     iteration #  2     ecut=    30.00 Ry     beta= 0.70
     Davidson diagonalization with overlap
     ethr =  2.71E-04,  avg # of iterations =  2.0

     negative rho (up, down):  2.494E+00 0.000E+00


     -----------------------------------------------
     Non-local corr. energy    =      40.71419359 Ry
     -----------------------------------------------


     total cpu time spent up to now is     1974.7 secs

     total energy              =   -9341.88060591 Ry
     estimated scf accuracy    <       1.02625216 Ry

     iteration #  3     ecut=    30.00 Ry     beta= 0.70
     Davidson diagonalization with overlap
     ethr =  1.04E-04,  avg # of iterations =  5.0

     negative rho (up, down):  2.500E+00 0.000E+00


     -----------------------------------------------
     Non-local corr. energy    =      40.71885081 Ry
     -----------------------------------------------


     total cpu time spent up to now is     2709.7 secs

     total energy              =   -9342.05067743 Ry
     estimated scf accuracy    <       1.31960510 Ry

     iteration #  4     ecut=    30.00 Ry     beta= 0.70
     Davidson diagonalization with overlap
     ethr =  1.04E-04,  avg # of iterations =  5.0

     negative rho (up, down):  2.498E+00 0.000E+00


     -----------------------------------------------
     Non-local corr. energy    =      40.72524572 Ry
     -----------------------------------------------


     total cpu time spent up to now is     3292.0 secs

     total energy              =   -9342.19036485 Ry
     estimated scf accuracy    <       0.11724317 Ry

     iteration #  5     ecut=    30.00 Ry     beta= 0.70
     Davidson diagonalization with overlap
     ethr =  1.19E-05,  avg # of iterations =  6.0

     negative rho (up, down):  2.494E+00 0.000E+00


     -----------------------------------------------
     Non-local corr. energy    =      40.73606669 Ry
     -----------------------------------------------


     total cpu time spent up to now is     4073.7 secs

     total energy              =   -9342.22503824 Ry
     estimated scf accuracy    <       0.39391904 Ry

     iteration #  6     ecut=    30.00 Ry     beta= 0.70
     Davidson diagonalization with overlap
     ethr =  1.19E-05,  avg # of iterations =  5.0

     negative rho (up, down):  2.494E+00 0.000E+00


     -----------------------------------------------
     Non-local corr. energy    =      40.73708937 Ry
     -----------------------------------------------


     total cpu time spent up to now is     4696.9 secs

     total energy              =   -9342.25500041 Ry
     estimated scf accuracy    <       0.07292285 Ry

     iteration #  7     ecut=    30.00 Ry     beta= 0.70
     Davidson diagonalization with overlap
     ethr =  7.38E-06,  avg # of iterations =  3.0

     negative rho (up, down):  2.494E+00 0.000E+00


     -----------------------------------------------
     Non-local corr. energy    =      40.73897690 Ry
     -----------------------------------------------


     total cpu time spent up to now is     5187.7 secs

     total energy              =   -9342.25005591 Ry
     estimated scf accuracy    <       0.04136728 Ry

     iteration #  8     ecut=    30.00 Ry     beta= 0.70
     Davidson diagonalization with overlap
     ethr =  4.19E-06,  avg # of iterations =  5.0

     negative rho (up, down):  2.494E+00 0.000E+00


     -----------------------------------------------
     Non-local corr. energy    =      40.74013994 Ry
     -----------------------------------------------


     total cpu time spent up to now is     5760.3 secs

     total energy              =   -9342.25348105 Ry
     estimated scf accuracy    <       0.00711943 Ry

     iteration #  9     ecut=    30.00 Ry     beta= 0.70
     Davidson diagonalization with overlap
     ethr =  7.21E-07,  avg # of iterations =  6.0

     negative rho (up, down):  2.494E+00 0.000E+00


     -----------------------------------------------
     Non-local corr. energy    =      40.74005721 Ry
     -----------------------------------------------


     total cpu time spent up to now is     6573.4 secs

     total energy              =   -9342.25669525 Ry
     estimated scf accuracy    <       0.01014218 Ry

     iteration # 10     ecut=    30.00 Ry     beta= 0.70
     Davidson diagonalization with overlap
     ethr =  7.21E-07,  avg # of iterations =  2.0

     negative rho (up, down):  2.494E+00 0.000E+00


     -----------------------------------------------
     Non-local corr. energy    =      40.73980229 Ry
     -----------------------------------------------


     total cpu time spent up to now is     7038.8 secs

     total energy              =   -9342.25545275 Ry
     estimated scf accuracy    <       0.00613116 Ry

     iteration # 11     ecut=    30.00 Ry     beta= 0.70
     Davidson diagonalization with overlap
     ethr =  6.21E-07,  avg # of iterations =  5.0

     negative rho (up, down):  2.494E+00 0.000E+00


     -----------------------------------------------
     Non-local corr. energy    =      40.73982429 Ry
     -----------------------------------------------


     total cpu time spent up to now is     7616.7 secs

     total energy              =   -9342.25630838 Ry
     estimated scf accuracy    <       0.00107015 Ry

     iteration # 12     ecut=    30.00 Ry     beta= 0.70
     Davidson diagonalization with overlap
     ethr =  1.08E-07,  avg # of iterations =  5.0

     negative rho (up, down):  2.494E+00 0.000E+00


     -----------------------------------------------
     Non-local corr. energy    =      40.74011084 Ry
     -----------------------------------------------


     total cpu time spent up to now is     8352.5 secs

     total energy              =   -9342.25652006 Ry
     estimated scf accuracy    <       0.00076347 Ry

     iteration # 13     ecut=    30.00 Ry     beta= 0.70
     Davidson diagonalization with overlap
     ethr =  7.73E-08,  avg # of iterations =  2.0

     negative rho (up, down):  2.494E+00 0.000E+00


     -----------------------------------------------
     Non-local corr. energy    =      40.74016099 Ry
     -----------------------------------------------


     total cpu time spent up to now is     8848.0 secs

     total energy              =   -9342.25650543 Ry
     estimated scf accuracy    <       0.00028754 Ry

     iteration # 14     ecut=    30.00 Ry     beta= 0.70
     Davidson diagonalization with overlap
     ethr =  2.91E-08,  avg # of iterations =  6.0

     negative rho (up, down):  2.494E+00 0.000E+00


     -----------------------------------------------
     Non-local corr. energy    =      40.74051422 Ry
     -----------------------------------------------


     total cpu time spent up to now is     9514.3 secs

     total energy              =   -9342.25658888 Ry
     estimated scf accuracy    <       0.00012063 Ry

     iteration # 15     ecut=    30.00 Ry     beta= 0.70
     Davidson diagonalization with overlap
     ethr =  1.22E-08,  avg # of iterations =  5.0

     negative rho (up, down):  2.494E+00 0.000E+00


     -----------------------------------------------
     Non-local corr. energy    =      40.74043606 Ry
     -----------------------------------------------


     total cpu time spent up to now is    10108.4 secs

     total energy              =   -9342.25656841 Ry
     estimated scf accuracy    <       0.00028493 Ry

     iteration # 16     ecut=    30.00 Ry     beta= 0.70
     Davidson diagonalization with overlap
     ethr =  1.22E-08,  avg # of iterations =  2.0

     negative rho (up, down):  2.494E+00 0.000E+00


     -----------------------------------------------
     Non-local corr. energy    =      40.74044631 Ry
     -----------------------------------------------


     total cpu time spent up to now is    10623.9 secs

     total energy              =   -9342.25656782 Ry
     estimated scf accuracy    <       0.00010199 Ry

     iteration # 17     ecut=    30.00 Ry     beta= 0.70
     Davidson diagonalization with overlap
     ethr =  1.03E-08,  avg # of iterations =  5.0

     negative rho (up, down):  2.494E+00 0.000E+00


     -----------------------------------------------
     Non-local corr. energy    =      40.74045576 Ry
     -----------------------------------------------


     total cpu time spent up to now is    11130.4 secs

     total energy              =   -9342.25657370 Ry
     estimated scf accuracy    <       0.00001970 Ry

     iteration # 18     ecut=    30.00 Ry     beta= 0.70
     Davidson diagonalization with overlap
     ethr =  1.99E-09,  avg # of iterations =  5.0

     negative rho (up, down):  2.494E+00 0.000E+00


     -----------------------------------------------
     Non-local corr. energy    =      40.74046394 Ry
     -----------------------------------------------


     total cpu time spent up to now is    11828.5 secs

     total energy              =   -9342.25657838 Ry
     estimated scf accuracy    <       0.00000485 Ry

     iteration # 19     ecut=    30.00 Ry     beta= 0.70
     Davidson diagonalization with overlap
     ethr =  4.90E-10,  avg # of iterations =  5.0

     negative rho (up, down):  2.494E+00 0.000E+00


     -----------------------------------------------
     Non-local corr. energy    =      40.74049727 Ry
     -----------------------------------------------


     total cpu time spent up to now is    12414.0 secs

     total energy              =   -9342.25657886 Ry
     estimated scf accuracy    <       0.00000294 Ry

     iteration # 20     ecut=    30.00 Ry     beta= 0.70
     Davidson diagonalization with overlap
     ethr =  2.98E-10,  avg # of iterations =  5.0

     negative rho (up, down):  2.494E+00 0.000E+00


     -----------------------------------------------
     Non-local corr. energy    =      40.74049989 Ry
     -----------------------------------------------


     total cpu time spent up to now is    12944.9 secs

     total energy              =   -9342.25657900 Ry
     estimated scf accuracy    <       0.00000242 Ry

     iteration # 21     ecut=    30.00 Ry     beta= 0.70
     Davidson diagonalization with overlap
     ethr =  2.45E-10,  avg # of iterations =  3.0

     negative rho (up, down):  2.494E+00 0.000E+00


     -----------------------------------------------
     Non-local corr. energy    =      40.74052147 Ry
     -----------------------------------------------


     total cpu time spent up to now is    13496.4 secs

     total energy              =   -9342.25657856 Ry
     estimated scf accuracy    <       0.00000298 Ry

     iteration # 22     ecut=    30.00 Ry     beta= 0.70
     Davidson diagonalization with overlap
     ethr =  2.45E-10,  avg # of iterations =  5.0

     negative rho (up, down):  2.494E+00 0.000E+00


     -----------------------------------------------
     Non-local corr. energy    =      40.74057480 Ry
     -----------------------------------------------


     total cpu time spent up to now is    14080.5 secs

     End of self-consistent calculation

          k =-0.5000-0.8660-0.2265 (109068 PWs)   bands (ev):

   -79.1793 -79.1791 -79.1777 -79.1774 -79.1745 -79.1743 -79.1742 -79.1739
   -79.1718 -79.1717 -79.1715 -79.1712 -79.1712 -79.1708 -79.1622 -79.1619
   -79.1617 -79.1616 -79.1612 -79.1610 -79.1584 -79.1583 -79.1579 -79.1577
   -79.1575 -79.1573 -79.1473 -79.1471 -79.1470 -79.1465 -79.1462 -79.1454
   -79.1300 -79.1290 -79.1270 -79.1267 -79.1259 -79.1258 -43.5815 -43.5810
   -43.5749 -43.5746 -43.5663 -43.5657 -43.5652 -43.5644 -43.5607 -43.5605
   -43.5450 -43.5445 -43.5440 -43.5435 -43.5400 -43.5396 -43.5362 -43.5354
   -43.5225 -43.5221 -43.5216 -43.5209 -43.5090 -43.5082 -43.5068 -43.5062
   -43.5027 -43.5022 -43.5012 -43.5005 -43.4972 -43.4969 -43.4925 -43.4922
   -43.4878 -43.4872 -43.4867 -43.4861 -43.4839 -43.4836 -43.4799 -43.4797
   -43.4744 -43.4742 -43.4721 -43.4717 -43.4680 -43.4678 -43.4666 -43.4664
   -43.4637 -43.4632 -43.4600 -43.4597 -43.4573 -43.4570 -43.4559 -43.4555
   -43.4548 -43.4545 -43.4526 -43.4523 -43.4478 -43.4473 -43.4464 -43.4456
   -43.4454 -43.4448 -43.4445 -43.4437 -43.4436 -43.4430 -43.4420 -43.4415
   -43.4411 -43.4404 -43.4384 -43.4376 -43.4318 -43.4313 -43.4308 -43.4305
   -43.4289 -43.4281 -43.4260 -43.4254 -43.4209 -43.4202 -43.4194 -43.4186
   -43.4185 -43.4176 -43.4164 -43.4157 -43.4094 -43.4090 -43.4070 -43.4064
   -43.4036 -43.4028 -43.4022 -43.4013 -43.4007 -43.4001 -43.3961 -43.3955
   -43.3851 -43.3842 -43.3804 -43.3797 -43.3740 -43.3731 -43.3671 -43.3662
   -20.0229 -19.9866 -19.6903 -19.6829 -19.6584 -19.6570 -19.3401 -19.3399
   -19.0854 -19.0800 -19.0733 -19.0704 -18.8822 -18.8617 -18.8216 -18.8195
   -18.7571 -18.7565 -18.7534 -18.7525 -18.6756 -18.6748 -18.5697 -18.5149
   -18.5138 -18.4900 -18.4822 -18.4773 -18.4487 -18.3991 -18.3657 -18.3435
   -18.3396 -18.3377 -18.3246 -18.3221 -18.3155 -18.2974 -18.2153 -18.1927
   -18.1855 -18.1781 -18.1721 -18.1636 -18.1390 -18.0920 -18.0639 -18.0626
   -18.0606 -18.0591 -18.0495 -18.0084 -18.0066 -17.9956 -17.9834 -17.9686
   -17.9463 -17.9457 -17.9441 -17.9293 -17.8850 -17.8810 -17.8700 -17.8419
   -17.8252 -17.8168 -17.7975 -17.7859 -17.7842 -17.7765 -17.7556 -17.7452
   -17.7188 -17.6855 -17.6385 -17.6246 -11.7398 -11.6719 -11.5993 -11.5987
   -11.3484 -11.3425 -11.2967 -11.2900 -11.2846 -11.2784 -11.2701 -11.2698
   -11.1550 -11.1415 -10.8409 -10.8303 -10.8289 -10.8133 -10.8066 -10.7990
   -10.7977 -10.7918 -10.7828 -10.7793 -10.7518 -10.7399 -10.6910 -10.6814
   -10.6552 -10.6509 -10.5392 -10.5309 -10.5285 -10.5117 -10.5111 -10.4696
   -10.4221 -10.3940 -10.3847 -10.3542 -10.3434 -10.3403 -10.3323 -10.3169
   -10.2917 -10.2682 -10.2628 -10.2484 -10.2365 -10.2243 -10.2136 -10.1814
   -10.1134 -10.0979 -10.0599 -10.0428 -10.0355 -10.0241  -9.9786  -9.9654
    -9.9484  -9.9221  -9.8949  -9.8239  -9.8199  -9.7709  -9.7181  -9.6648
    -9.6373  -9.6340  -9.6090  -9.5823  -9.5728  -9.4969  -9.4827  -9.4752
    -9.4742  -9.4563  -9.4458  -9.3496  -9.3493  -9.3454  -9.3444  -9.2821
    -9.2785  -9.2706  -9.2667  -9.2628  -9.2245  -9.1792  -9.1591  -9.1270
    -9.1268  -9.0910  -9.0435  -9.0405  -9.0389  -9.0374  -8.9970  -8.9942
    -8.9838  -8.9823  -8.9128  -8.9069  -8.7904  -8.7899  -8.7502  -8.7477
    -8.7174  -8.7169  -8.6689  -8.6600  -8.6056  -8.5999  -8.5927  -8.5901
    -8.5474  -8.5428  -8.4507  -8.4110  -8.4082  -8.3926  -8.3782  -8.3543
    -8.3009  -8.2980  -8.2879  -8.2820  -8.2610  -8.2602  -8.2540  -8.2536
    -8.2530  -8.2431  -8.2380  -8.2154  -8.1755  -8.1750  -8.1685  -8.1649
    -8.0844  -8.0840  -8.0311  -8.0235  -8.0174  -8.0127  -7.9459  -7.8804
    -7.8690  -7.8361  -7.8323  -7.8309  -7.8188  -7.7233  -7.7075  -7.6749
    -7.6238  -7.6131  -7.5781  -7.5615  -7.5057  -7.4855  -7.4803  -7.4767
    -7.4740  -7.4559  -7.4504  -7.4316  -7.4295  -7.4069  -7.3946  -7.3725
    -7.3636  -7.3342  -7.3320  -7.3212  -7.3080  -7.3071  -7.2811  -7.2739
    -7.2676  -7.2132  -7.1891  -7.1688  -7.1555  -7.1482  -7.1314  -7.1263
    -7.1230  -7.1204  -7.1153  -7.0816  -7.0776  -7.0673  -7.0583  -6.9911
    -6.9783  -6.9641  -6.9406  -6.9366  -6.8938  -6.8938  -6.8886  -6.8844
    -6.8637  -6.8621  -6.8402  -6.7912  -6.7804  -6.7331  -6.7327  -6.7255
    -6.7216  -6.6653  -6.5987  -6.5750  -6.5548  -6.5481  -6.5265  -6.5041
    -6.4821  -6.4579  -6.3424  -6.3312  -6.3032  -6.2950  -6.2864  -6.2864
    -6.2089  -6.2053  -6.1876  -6.1831  -6.1660  -6.1567  -6.1117  -6.1025
    -6.1012  -6.0980  -6.0581  -6.0280  -6.0047  -5.9956  -5.9926  -5.9721
    -5.9514  -5.9359  -5.9328  -5.9015  -5.8537  -5.8381  -5.8305  -5.8104
    -5.8065  -5.7855  -5.7441  -5.7324  -5.6719  -5.6594  -5.6162  -5.5987
    -5.4514  -5.4416  -5.3753  -5.3690  -5.0994  -5.0142

     occupation numbers 
     1.0000   1.0000   1.0000   1.0000   1.0000   1.0000   1.0000   1.0000
     1.0000   1.0000   1.0000   1.0000   1.0000   1.0000   1.0000   1.0000
     1.0000   1.0000   1.0000   1.0000   1.0000   1.0000   1.0000   1.0000
     1.0000   1.0000   1.0000   1.0000   1.0000   1.0000   1.0000   1.0000
     1.0000   1.0000   1.0000   1.0000   1.0000   1.0000   1.0000   1.0000
     1.0000   1.0000   1.0000   1.0000   1.0000   1.0000   1.0000   1.0000
     1.0000   1.0000   1.0000   1.0000   1.0000   1.0000   1.0000   1.0000
     1.0000   1.0000   1.0000   1.0000   1.0000   1.0000   1.0000   1.0000
     1.0000   1.0000   1.0000   1.0000   1.0000   1.0000   1.0000   1.0000
     1.0000   1.0000   1.0000   1.0000   1.0000   1.0000   1.0000   1.0000
     1.0000   1.0000   1.0000   1.0000   1.0000   1.0000   1.0000   1.0000
     1.0000   1.0000   1.0000   1.0000   1.0000   1.0000   1.0000   1.0000
     1.0000   1.0000   1.0000   1.0000   1.0000   1.0000   1.0000   1.0000
     1.0000   1.0000   1.0000   1.0000   1.0000   1.0000   1.0000   1.0000
     1.0000   1.0000   1.0000   1.0000   1.0000   1.0000   1.0000   1.0000
     1.0000   1.0000   1.0000   1.0000   1.0000   1.0000   1.0000   1.0000
     1.0000   1.0000   1.0000   1.0000   1.0000   1.0000   1.0000   1.0000
     1.0000   1.0000   1.0000   1.0000   1.0000   1.0000   1.0000   1.0000
     1.0000   1.0000   1.0000   1.0000   1.0000   1.0000   1.0000   1.0000
     1.0000   1.0000   1.0000   1.0000   1.0000   1.0000   1.0000   1.0000
     1.0000   1.0000   1.0000   1.0000   1.0000   1.0000   1.0000   1.0000
     1.0000   1.0000   1.0000   1.0000   1.0000   1.0000   1.0000   1.0000
     1.0000   1.0000   1.0000   1.0000   1.0000   1.0000   1.0000   1.0000
     1.0000   1.0000   1.0000   1.0000   1.0000   1.0000   1.0000   1.0000
     1.0000   1.0000   1.0000   1.0000   1.0000   1.0000   1.0000   1.0000
     1.0000   1.0000   1.0000   1.0000   1.0000   1.0000   1.0000   1.0000
     1.0000   1.0000   1.0000   1.0000   1.0000   1.0000   1.0000   1.0000
     1.0000   1.0000   1.0000   1.0000   1.0000   1.0000   1.0000   1.0000
     1.0000   1.0000   1.0000   1.0000   1.0000   1.0000   1.0000   1.0000
     1.0000   1.0000   1.0000   1.0000   1.0000   1.0000   1.0000   1.0000
     1.0000   1.0000   1.0000   1.0000   1.0000   1.0000   1.0000   1.0000
     1.0000   1.0000   1.0000   1.0000   1.0000   1.0000   1.0000   1.0000
     1.0000   1.0000   1.0000   1.0000   1.0000   1.0000   1.0000   1.0000
     1.0000   1.0000   1.0000   1.0000   1.0000   1.0000   1.0000   1.0000
     1.0000   1.0000   1.0000   1.0000   1.0000   1.0000   1.0000   1.0000
     1.0000   1.0000   1.0000   1.0000   1.0000   1.0000   1.0000   1.0000
     1.0000   1.0000   1.0000   1.0000   1.0000   1.0000   1.0000   1.0000
     1.0000   1.0000   1.0000   1.0000   1.0000   1.0000   1.0000   1.0000
     1.0000   1.0000   1.0000   1.0000   1.0000   1.0000   1.0000   1.0000
     1.0000   1.0000   1.0000   1.0000   1.0000   1.0000   1.0000   1.0000
     1.0000   1.0000   1.0000   1.0000   1.0000   1.0000   1.0000   1.0000
     1.0000   1.0000   1.0000   1.0000   1.0000   1.0000   1.0000   1.0000
     1.0000   1.0000   1.0000   1.0000   1.0000   1.0000   1.0000   1.0000
     1.0000   1.0000   1.0000   1.0000   1.0000   1.0000   1.0000   1.0000
     1.0000   1.0000   1.0000   1.0000   1.0000   1.0000   1.0000   1.0000
     1.0000   1.0000   1.0000   1.0000   1.0000   1.0000   1.0000   1.0000
     1.0000   1.0000   1.0000   1.0000   1.0000   1.0000   1.0000   1.0000
     1.0000   1.0000   1.0000   1.0000   1.0000   1.0000   1.0000   1.0000
     1.0000   1.0000   1.0000   1.0000   1.0000   1.0000   1.0000   1.0000
     1.0000   1.0000   1.0000   1.0000   1.0000   1.0000   1.0000   1.0000
     1.0000   1.0000   1.0000   1.0000   1.0000   1.0000   1.0000   1.0000
     1.0000   1.0000   1.0000   1.0000   1.0000   1.0000   1.0000   1.0000
     1.0000   1.0000   1.0000   1.0000   1.0000   1.0000   1.0000   1.0000
     1.0000   1.0000   1.0000   1.0000   1.0000   1.0000   1.0000   1.0000
     1.0000   1.0000   1.0000   1.0000   1.0000   1.0000   1.0000   1.0000
     1.0000   1.0000   1.0000   1.0000   1.0000   1.0000   1.0000   1.0000
     1.0000   1.0000   1.0000   1.0000   1.0000   1.0000   1.0000   1.0000
     1.0000   1.0000   1.0000   1.0000   1.0000   1.0000   1.0000   1.0000
     1.0000   1.0000   1.0000   1.0000   1.0000   1.0000   1.0000   1.0000
     1.0000   1.0000   1.0000   1.0000   1.0000   1.0000   1.0000   1.0000
     1.0000   1.0000   1.0000   1.0000   1.0000   1.0000   1.0000   1.0000
     1.0000   1.0000   1.0000   1.0000   1.0000   1.0000

     highest occupied level (ev):    -5.0142

!    total energy              =   -9342.25657840 Ry
     estimated scf accuracy    <       0.00000056 Ry

     The total energy is the sum of the following terms:
     one-electron contribution = -151329.77500514 Ry
     hartree contribution      =   75493.26192636 Ry
     xc contribution           =   -3804.42003002 Ry
     ewald contribution        =   70298.67653040 Ry

     convergence has been achieved in  22 iterations

     negative rho (up, down):  2.494E+00 0.000E+00


     -----------------------------------------------
     Non-local corr. energy    =      40.74057480 Ry
     -----------------------------------------------


     Forces acting on atoms (cartesian axes, Ry/au):

     atom    1 type  1   force =     0.00045612    0.00121097   -0.00223202
     atom    2 type  1   force =    -0.00150232    0.00381046   -0.00596639
     atom    3 type  1   force =     0.00168342    0.00095665   -0.00649195
     atom    4 type  1   force =     0.00405111   -0.00060418   -0.00596639
     atom    5 type  1   force =    -0.00167020    0.00097956   -0.00649195
     atom    6 type  1   force =    -0.00001322   -0.00193621   -0.00649195
     atom    7 type  1   force =     0.00082067   -0.00100049   -0.00223202
     atom    8 type  1   force =    -0.00127679   -0.00021048   -0.00223202
     atom    9 type  1   force =    -0.00254879   -0.00320627   -0.00596639
     atom   10 type  1   force =    -0.00217696   -0.00219275   -0.00567255
     atom   11 type  1   force =    -0.00147074    0.00139176   -0.00211587
     atom   12 type  1   force =     0.00000000    0.00000000    0.00057908
     atom   13 type  1   force =    -0.00046993   -0.00196958   -0.00211587
     atom   14 type  1   force =    -0.00079895   -0.00220644   -0.00678159
     atom   15 type  1   force =    -0.00151136    0.00179513   -0.00678159
     atom   16 type  1   force =     0.00298746   -0.00078893   -0.00567255
     atom   17 type  1   force =     0.00231031    0.00041131   -0.00678159
     atom   18 type  1   force =    -0.00081050    0.00298168   -0.00567255
     atom   19 type  1   force =     0.00194067    0.00057782   -0.00211587
     atom   20 type  1   force =     0.00048841   -0.00195316    0.00228465
     atom   21 type  1   force =    -0.00303833   -0.00083325    0.00578327
     atom   22 type  1   force =     0.00081221   -0.00219673    0.00687469
     atom   23 type  1   force =    -0.00230853    0.00039497    0.00687469
     atom   24 type  1   force =    -0.00193569    0.00055361    0.00228465
     atom   25 type  1   force =     0.00000000    0.00000000   -0.00051349
     atom   26 type  1   force =     0.00224078   -0.00221465    0.00578327
     atom   27 type  1   force =     0.00149632    0.00180176    0.00687469
     atom   28 type  1   force =     0.00079755    0.00304789    0.00578327
     atom   29 type  1   force =     0.00123577   -0.00015512    0.00241125
     atom   30 type  1   force =     0.00144728    0.00139955    0.00228465
     atom   31 type  1   force =     0.00140385    0.00383890    0.00605298
     atom   32 type  1   force =     0.00165050    0.00105783    0.00664749
     atom   33 type  1   force =     0.00262266   -0.00313522    0.00605298
     atom   34 type  1   force =    -0.00048355    0.00114777    0.00241125
     atom   35 type  1   force =    -0.00174136    0.00090046    0.00664749
     atom   36 type  1   force =     0.00009086   -0.00195830    0.00664749
     atom   37 type  1   force =    -0.00402651   -0.00070368    0.00605298
     atom   38 type  1   force =    -0.00075222   -0.00099265    0.00241125
     atom   39 type  2   force =    -0.00559572    0.00108156   -0.02308996
     atom   40 type  2   force =     0.00942200   -0.00460695   -0.02211954
     atom   41 type  2   force =    -0.00104622    0.00473056   -0.01646764
     atom   42 type  2   force =     0.00461990   -0.00145922   -0.01646764
     atom   43 type  2   force =     0.00373451    0.00430526   -0.02308996
     atom   44 type  2   force =    -0.00072127    0.01046317   -0.02211954
     atom   45 type  2   force =    -0.00357368   -0.00327134   -0.01646764
     atom   46 type  2   force =    -0.00870074   -0.00585622   -0.02211954
     atom   47 type  2   force =    -0.00643968   -0.00095142   -0.01911727
     atom   48 type  2   force =     0.00186120   -0.00538681   -0.02308996
     atom   49 type  2   force =    -0.00694668   -0.01233259   -0.04133699
     atom   50 type  2   force =    -0.01535930   -0.00249130   -0.04179497
     atom   51 type  2   force =     0.00404379   -0.00510121   -0.01911727
     atom   52 type  2   force =     0.00983718   -0.01205590   -0.04179497
     atom   53 type  2   force =     0.00000000    0.00000000   -0.06178676
     atom   54 type  2   force =    -0.00720699    0.01218230   -0.04133699
     atom   55 type  2   force =     0.01415368    0.00015029   -0.04133699
     atom   56 type  2   force =     0.00552212    0.01454719   -0.04179497
     atom   57 type  2   force =     0.00239589    0.00605263   -0.01911727
     atom   58 type  2   force =    -0.00020579   -0.00167634    0.00670293
     atom   59 type  2   force =     0.00048364    0.00123604    0.00691472
     atom   60 type  2   force =    -0.00077252   -0.00063397    0.00729039
     atom   61 type  2   force =    -0.00016278    0.00098601    0.00729039
     atom   62 type  2   force =    -0.00134886    0.00101639    0.00670293
     atom   63 type  2   force =    -0.00131226   -0.00019918    0.00691472
     atom   64 type  2   force =     0.00093530   -0.00035204    0.00729039
     atom   65 type  2   force =     0.00082862   -0.00103686    0.00691472
     atom   66 type  2   force =    -0.00004355   -0.00117540    0.00667846
     atom   67 type  2   force =     0.00155465    0.00065995    0.00670293
     atom   68 type  2   force =     0.00232606   -0.00070873    0.00602594
     atom   69 type  2   force =     0.00052119   -0.00257821    0.00588019
     atom   70 type  2   force =     0.00103970    0.00054999    0.00667846
     atom   71 type  2   force =     0.00197220    0.00174047    0.00588019
     atom   72 type  2   force =     0.00000000    0.00000000    0.00496916
     atom   73 type  2   force =    -0.00177681   -0.00166006    0.00602594
     atom   74 type  2   force =    -0.00054925    0.00236879    0.00602594
     atom   75 type  2   force =    -0.00249339    0.00083774    0.00588019
     atom   76 type  2   force =    -0.00099615    0.00062541    0.00667846
     atom   77 type  2   force =    -0.00085542    0.00045058   -0.01002455
     atom   78 type  2   force =    -0.00154667    0.00142198   -0.01051036
     atom   79 type  2   force =     0.00048297    0.00183172   -0.01066295
     atom   80 type  2   force =    -0.00182780   -0.00049759   -0.01066295
     atom   81 type  2   force =     0.00000000    0.00000000   -0.01057130
     atom   82 type  2   force =     0.00200480    0.00062847   -0.01051036
     atom   83 type  2   force =     0.00081792    0.00051553   -0.01002455
     atom   84 type  2   force =    -0.00045813   -0.00205045   -0.01051036
     atom   85 type  2   force =     0.00134483   -0.00133413   -0.01066295
     atom   86 type  2   force =     0.00100833   -0.00013301   -0.01053882
     atom   87 type  2   force =    -0.00125488    0.00061478   -0.01032680
     atom   88 type  2   force =     0.00003750   -0.00096611   -0.01002455
     atom   89 type  2   force =     0.00009503   -0.00139415   -0.01032680
     atom   90 type  2   force =     0.00057964   -0.00053049   -0.01066943
     atom   91 type  2   force =    -0.00074924   -0.00023673   -0.01066943
     atom   92 type  2   force =    -0.00038897    0.00093975   -0.01053882
     atom   93 type  2   force =     0.00016960    0.00076723   -0.01066943
     atom   94 type  2   force =    -0.00061936   -0.00080674   -0.01053882
     atom   95 type  2   force =     0.00115985    0.00077937   -0.01032680
     atom   96 type  2   force =    -0.00381442   -0.00521967    0.02237110
     atom   97 type  2   force =    -0.00933659   -0.01242880    0.04625842
     atom   98 type  2   force =    -0.01423131   -0.00047798    0.04581333
     atom   99 type  2   force =     0.00752960   -0.01208568    0.04581333
     atom  100 type  2   force =     0.00000000    0.00000000    0.06714913
     atom  101 type  2   force =    -0.00609536    0.01430012    0.04625842
     atom  102 type  2   force =    -0.00261316    0.00591322    0.02237110
     atom  103 type  2   force =     0.01543195   -0.00187132    0.04625842
     atom  104 type  2   force =     0.00670171    0.01256366    0.04581333
     atom  105 type  2   force =     0.00036031    0.01053255    0.02563755
     atom  106 type  2   force =    -0.00150365   -0.00544588    0.02660104
     atom  107 type  2   force =     0.00642757   -0.00069355    0.02237110
     atom  108 type  2   force =     0.00546810    0.00142074    0.02660104
     atom  109 type  2   force =     0.00082534    0.00484811    0.01974932
     atom  110 type  2   force =     0.00378591   -0.00313882    0.01974932
     atom  111 type  2   force =    -0.00930161   -0.00495424    0.02563755
     atom  112 type  2   force =    -0.00461125   -0.00170929    0.01974932
     atom  113 type  2   force =     0.00894130   -0.00557831    0.02563755
     atom  114 type  2   force =    -0.00396444    0.00402514    0.02660104
     The non-local contrib.  to forces
     atom    1 type  1   force =     0.00067648   -0.00049957    0.00692993
     atom    2 type  1   force =    -0.00151095    0.00243052    0.00479795
     atom    3 type  1   force =     0.00145051    0.00003068    0.00045960
     atom    4 type  1   force =     0.00286036    0.00009326    0.00479795
     atom    5 type  1   force =    -0.00075182    0.00124084    0.00045960
     atom    6 type  1   force =    -0.00069869   -0.00127152    0.00045960
     atom    7 type  1   force =    -0.00077088   -0.00033607    0.00692993
     atom    8 type  1   force =     0.00009440    0.00083564    0.00692993
     atom    9 type  1   force =    -0.00134941   -0.00252378    0.00479795
     atom   10 type  1   force =    -0.00359367   -0.00265148    0.00831538
     atom   11 type  1   force =    -0.00285290   -0.00029848    0.00999555
     atom   12 type  1   force =     0.00000000    0.00000000    0.00962339
     atom   13 type  1   force =     0.00168494   -0.00232144    0.00999555
     atom   14 type  1   force =     0.00023877   -0.00272280    0.01320362
     atom   15 type  1   force =    -0.00247740    0.00115462    0.01320362
     atom   16 type  1   force =     0.00409309   -0.00178647    0.00831538
     atom   17 type  1   force =     0.00223863    0.00156819    0.01320362
     atom   18 type  1   force =    -0.00049942    0.00443795    0.00831538
     atom   19 type  1   force =     0.00116796    0.00261992    0.00999555
     atom   20 type  1   force =    -0.00169988   -0.00227751   -0.00976385
     atom   21 type  1   force =    -0.00417525   -0.00184984   -0.00816797
     atom   22 type  1   force =    -0.00020542   -0.00271036   -0.01308348
     atom   23 type  1   force =    -0.00224453    0.00153308   -0.01308348
     atom   24 type  1   force =    -0.00112244    0.00261089   -0.00976385
     atom   25 type  1   force =     0.00000000    0.00000000   -0.00954257
     atom   26 type  1   force =     0.00368963   -0.00269095   -0.00816797
     atom   27 type  1   force =     0.00244995    0.00117728   -0.01308348
     atom   28 type  1   force =     0.00048562    0.00454079   -0.00816797
     atom   29 type  1   force =    -0.00013997    0.00095181   -0.00667573
     atom   30 type  1   force =     0.00282232   -0.00033338   -0.00976385
     atom   31 type  1   force =     0.00137260    0.00245631   -0.00468758
     atom   32 type  1   force =     0.00072887    0.00134644   -0.00026915
     atom   33 type  1   force =     0.00144092   -0.00241686   -0.00468758
     atom   34 type  1   force =    -0.00075431   -0.00059712   -0.00667573
     atom   35 type  1   force =    -0.00153049   -0.00004200   -0.00026915
     atom   36 type  1   force =     0.00080162   -0.00130445   -0.00026915
     atom   37 type  1   force =    -0.00281353   -0.00003944   -0.00468758
     atom   38 type  1   force =     0.00089428   -0.00035469   -0.00667573
     atom   39 type  2   force =    -0.00692821    0.00235429   -0.33888234
     atom   40 type  2   force =     0.00059556   -0.00050367   -0.33750004
     atom   41 type  2   force =    -0.00320770    0.00223575   -0.33211785
     atom   42 type  2   force =     0.00354007    0.00166008   -0.33211785
     atom   43 type  2   force =     0.00550298    0.00482286   -0.33888234
     atom   44 type  2   force =     0.00013841    0.00076761   -0.33750004
     atom   45 type  2   force =    -0.00033237   -0.00389583   -0.33211785
     atom   46 type  2   force =    -0.00073398   -0.00026394   -0.33750004
     atom   47 type  2   force =    -0.00281480    0.00248828   -0.33592412
     atom   48 type  2   force =     0.00142523   -0.00717715   -0.33888234
     atom   49 type  2   force =    -0.00098459   -0.00639926   -0.35350442
     atom   50 type  2   force =    -0.00592652    0.00125475   -0.35397930
     atom   51 type  2   force =    -0.00074752   -0.00368183   -0.33592412
     atom   52 type  2   force =     0.00187662   -0.00575989   -0.35397930
     atom   53 type  2   force =     0.00000000    0.00000000   -0.37035987
     atom   54 type  2   force =    -0.00504962    0.00405231   -0.35350442
     atom   55 type  2   force =     0.00603422    0.00234694   -0.35350442
     atom   56 type  2   force =     0.00404990    0.00450514   -0.35397930
     atom   57 type  2   force =     0.00356231    0.00119354   -0.33592412
     atom   58 type  2   force =    -0.00041435   -0.00061254    0.32664744
     atom   59 type  2   force =    -0.00073890    0.00080642    0.32617972
     atom   60 type  2   force =    -0.00050388   -0.00065356    0.32576419
     atom   61 type  2   force =    -0.00031406    0.00076315    0.32576419
     atom   62 type  2   force =    -0.00032330    0.00066511    0.32664744
     atom   63 type  2   force =    -0.00032893   -0.00104311    0.32617972
     atom   64 type  2   force =     0.00081794   -0.00010959    0.32576419
     atom   65 type  2   force =     0.00106783    0.00023669    0.32617972
     atom   66 type  2   force =     0.00035790   -0.00014635    0.32722709
     atom   67 type  2   force =     0.00073765   -0.00005257    0.32664744
     atom   68 type  2   force =     0.00162208   -0.00002399    0.32577692
     atom   69 type  2   force =     0.00068933   -0.00084493    0.32621966
     atom   70 type  2   force =    -0.00005221    0.00038313    0.32722709
     atom   71 type  2   force =     0.00038707    0.00101944    0.32621966
     atom   72 type  2   force =     0.00000000    0.00000000    0.32535102
     atom   73 type  2   force =    -0.00083181   -0.00139277    0.32577692
     atom   74 type  2   force =    -0.00079026    0.00141676    0.32577692
     atom   75 type  2   force =    -0.00107640   -0.00017451    0.32621966
     atom   76 type  2   force =    -0.00030569   -0.00023678    0.32722709
     atom   77 type  2   force =     0.00006285    0.00037251   -0.32737281
     atom   78 type  2   force =    -0.00035416    0.00098905   -0.32649739
     atom   79 type  2   force =     0.00078193    0.00136546   -0.32605585
     atom   80 type  2   force =    -0.00157349   -0.00000556   -0.32605585
     atom   81 type  2   force =     0.00000000    0.00000000   -0.32574202
     atom   82 type  2   force =     0.00103362   -0.00018781   -0.32649739
     atom   83 type  2   force =     0.00029118   -0.00024069   -0.32737281
     atom   84 type  2   force =    -0.00067946   -0.00080124   -0.32649739
     atom   85 type  2   force =     0.00079156   -0.00135990   -0.32605585
     atom   86 type  2   force =     0.00029892   -0.00103031   -0.32635944
     atom   87 type  2   force =    -0.00071282   -0.00004803   -0.32682691
     atom   88 type  2   force =    -0.00035403   -0.00013182   -0.32737281
     atom   89 type  2   force =     0.00039800   -0.00059330   -0.32682691
     atom   90 type  2   force =     0.00048440   -0.00063975   -0.32593699
     atom   91 type  2   force =    -0.00079624   -0.00009963   -0.32593699
     atom   92 type  2   force =     0.00074281    0.00077403   -0.32635944
     atom   93 type  2   force =     0.00031184    0.00073938   -0.32593699
     atom   94 type  2   force =    -0.00104173    0.00025628   -0.32635944
     atom   95 type  2   force =     0.00031482    0.00064133   -0.32682691
     atom   96 type  2   force =     0.00077107   -0.00369352    0.33608695
     atom   97 type  2   force =    -0.00182990   -0.00579321    0.35426248
     atom   98 type  2   force =    -0.00603807    0.00228590    0.35378832
     atom   99 type  2   force =     0.00103939   -0.00637208    0.35378832
     atom  100 type  2   force =     0.00000000   -0.00000000    0.37072355
     atom  101 type  2   force =    -0.00410212    0.00448135    0.35426248
     atom  102 type  2   force =    -0.00358422    0.00117900    0.33608695
     atom  103 type  2   force =     0.00593202    0.00131187    0.35426248
     atom  104 type  2   force =     0.00499869    0.00408617    0.35378832
     atom  105 type  2   force =    -0.00017414    0.00077831    0.33769215
     atom  106 type  2   force =    -0.00139402   -0.00717486    0.33907683
     atom  107 type  2   force =     0.00281315    0.00251452    0.33608695
     atom  108 type  2   force =     0.00691062    0.00238017    0.33907683
     atom  109 type  2   force =     0.00317898    0.00224459    0.33229974
     atom  110 type  2   force =     0.00035438   -0.00387537    0.33229974
     atom  111 type  2   force =    -0.00058697   -0.00053996    0.33769215
     atom  112 type  2   force =    -0.00353336    0.00163078    0.33229974
     atom  113 type  2   force =     0.00076110   -0.00023835    0.33769215
     atom  114 type  2   force =    -0.00551660    0.00479468    0.33907683
     The ionic contribution  to forces
     atom    1 type  1   force =    -0.00351601   -0.00393044 -133.78202781
     atom    2 type  1   force =     0.00000582   -0.00614917 -133.78539392
     atom    3 type  1   force =    -0.00403940   -0.00216722 -133.79085113
     atom    4 type  1   force =    -0.00532987    0.00291878 -133.78541505
     atom    5 type  1   force =     0.00361515   -0.00243085 -133.79085300
     atom    6 type  1   force =     0.00018896    0.00451293 -133.79085600
     atom    7 type  1   force =    -0.00161308    0.00482060 -133.78203761
     atom    8 type  1   force =     0.00471769   -0.00100266 -133.78204216
     atom    9 type  1   force =     0.00529564    0.00324776 -133.78541439
     atom   10 type  1   force =     0.00221913    0.00476777 -133.78174775
     atom   11 type  1   force =    -0.00032018   -0.00090162 -133.77917758
     atom   12 type  1   force =     0.00003110   -0.00010303 -133.77784276
     atom   13 type  1   force =     0.00107271   -0.00006414 -133.77919284
     atom   14 type  1   force =     0.00094495    0.00214094 -133.77801751
     atom   15 type  1   force =     0.00149355   -0.00174920 -133.77800669
     atom   16 type  1   force =    -0.00520294   -0.00042890 -133.78175202
     atom   17 type  1   force =    -0.00226400   -0.00023795 -133.77801642
     atom   18 type  1   force =     0.00310364   -0.00419688 -133.78174329
     atom   19 type  1   force =    -0.00047091    0.00095110 -133.77919280
     atom   20 type  1   force =    -0.00106046    0.00005420  133.77916897
     atom   21 type  1   force =     0.00521576   -0.00045573  133.78173543
     atom   22 type  1   force =    -0.00082970    0.00219793  133.77799232
     atom   23 type  1   force =     0.00230597   -0.00025277  133.77800283
     atom   24 type  1   force =     0.00051362    0.00084281  133.77917511
     atom   25 type  1   force =     0.00003388   -0.00009089  133.77782176
     atom   26 type  1   force =    -0.00206444    0.00482670  133.78171342
     atom   27 type  1   force =    -0.00135586   -0.00181676  133.77799386
     atom   28 type  1   force =    -0.00301592   -0.00422692  133.78173851
     atom   29 type  1   force =    -0.00494600   -0.00103276  133.78202330
     atom   30 type  1   force =     0.00059173   -0.00088906  133.77916103
     atom   31 type  1   force =    -0.00012927   -0.00612871  133.78539244
     atom   32 type  1   force =    -0.00369616   -0.00234845  133.79083926
     atom   33 type  1   force =    -0.00550422    0.00326924  133.78538276
     atom   34 type  1   force =     0.00339413   -0.00386271  133.78201792
     atom   35 type  1   force =     0.00404961   -0.00212945  133.79083908
     atom   36 type  1   force =    -0.00038133    0.00446987  133.79082826
     atom   37 type  1   force =     0.00531423    0.00287762  133.78539694
     atom   38 type  1   force =     0.00155209    0.00469373  133.78200544
     atom   39 type  2   force =    -0.05916163    0.02340732  -15.26052000
     atom   40 type  2   force =     0.05174986   -0.03143568  -15.26409219
     atom   41 type  2   force =    -0.01606423    0.03840082  -15.23900607
     atom   42 type  2   force =     0.04130833   -0.00535887  -15.23901132
     atom   43 type  2   force =     0.04987577    0.03949852  -15.26047636
     atom   44 type  2   force =     0.00123928    0.06055836  -15.26417480
     atom   45 type  2   force =    -0.02524836   -0.03304866  -15.23899044
     atom   46 type  2   force =    -0.05308841   -0.02915299  -15.26412558
     atom   47 type  2   force =    -0.04646030    0.00951386  -15.22622633
     atom   48 type  2   force =     0.00930035   -0.06294116  -15.26042314
     atom   49 type  2   force =    -0.04943915   -0.08692483  -15.37286502
     atom   50 type  2   force =    -0.10448399    0.00123872  -15.37003165
     atom   51 type  2   force =     0.01500156   -0.04509236  -15.22623284
     atom   52 type  2   force =     0.05120720   -0.09112893  -15.37002569
     atom   53 type  2   force =     0.00001250    0.00001733  -15.47678587
     atom   54 type  2   force =    -0.05055331    0.08635382  -15.37289888
     atom   55 type  2   force =     0.10003295    0.00064927  -15.37286730
     atom   56 type  2   force =     0.05333715    0.08992933  -15.37003249
     atom   57 type  2   force =     0.03146936    0.03551784  -15.22624193
     atom   58 type  2   force =    -0.00007363   -0.00000568  -99.37198260
     atom   59 type  2   force =    -0.00002531   -0.00002470  -99.37208948
     atom   60 type  2   force =    -0.00009702    0.00000266  -99.37206797
     atom   61 type  2   force =     0.00007612    0.00002097  -99.37207623
     atom   62 type  2   force =     0.00005030    0.00003665  -99.37205395
     atom   63 type  2   force =    -0.00006177    0.00000808  -99.37201313
     atom   64 type  2   force =     0.00002500   -0.00003090  -99.37209407
     atom   65 type  2   force =    -0.00000171   -0.00001219  -99.37206118
     atom   66 type  2   force =    -0.00000128    0.00000319  -99.37200832
     atom   67 type  2   force =     0.00003540   -0.00006030  -99.37210907
     atom   68 type  2   force =    -0.00000457   -0.00005679  -99.37213380
     atom   69 type  2   force =    -0.00003402    0.00001416  -99.37211005
     atom   70 type  2   force =     0.00000809   -0.00008874  -99.37200295
     atom   71 type  2   force =     0.00003730   -0.00005497  -99.37212730
     atom   72 type  2   force =     0.00000948    0.00001347  -99.37219024
     atom   73 type  2   force =    -0.00004025    0.00009930  -99.37208241
     atom   74 type  2   force =     0.00008328    0.00002642  -99.37213483
     atom   75 type  2   force =     0.00005049    0.00007300  -99.37211508
     atom   76 type  2   force =    -0.00000189    0.00003746  -99.37200166
     atom   77 type  2   force =     0.00000296   -0.00003854   99.37204558
     atom   78 type  2   force =    -0.00003006   -0.00003535   99.37214038
     atom   79 type  2   force =    -0.00007071    0.00002361   99.37216340
     atom   80 type  2   force =     0.00004961   -0.00004576   99.37209319
     atom   81 type  2   force =     0.00001029    0.00001091   99.37221350
     atom   82 type  2   force =    -0.00003047    0.00005485   99.37215105
     atom   83 type  2   force =    -0.00001268    0.00000539   99.37204953
     atom   84 type  2   force =     0.00010111    0.00001647   99.37213344
     atom   85 type  2   force =     0.00005441    0.00006210   99.37214523
     atom   86 type  2   force =     0.00002749    0.00001887   99.37208905
     atom   87 type  2   force =    -0.00005289   -0.00006972   99.37209795
     atom   88 type  2   force =     0.00006736   -0.00001572   99.37200690
     atom   89 type  2   force =     0.00007130    0.00001433   99.37206854
     atom   90 type  2   force =     0.00005252    0.00001856   99.37208378
     atom   91 type  2   force =    -0.00005905   -0.00003581   99.37212361
     atom   92 type  2   force =    -0.00001003   -0.00000326   99.37209069
     atom   93 type  2   force =    -0.00008771    0.00004042   99.37211263
     atom   94 type  2   force =    -0.00002198   -0.00004275   99.37202185
     atom   95 type  2   force =    -0.00005528    0.00002246   99.37207804
     atom   96 type  2   force =    -0.01498812   -0.04503584   15.22621059
     atom   97 type  2   force =    -0.05119676   -0.09110464   15.37002670
     atom   98 type  2   force =    -0.10001910    0.00064742   15.37286175
     atom   99 type  2   force =     0.04948817   -0.08690954   15.37290802
     atom  100 type  2   force =     0.00001421    0.00001552   15.47678238
     atom  101 type  2   force =    -0.05331585    0.08990561   15.37002448
     atom  102 type  2   force =    -0.03148648    0.03548154   15.22621240
     atom  103 type  2   force =     0.10456493    0.00124251   15.37002186
     atom  104 type  2   force =     0.05057194    0.08631374   15.37287311
     atom  105 type  2   force =    -0.00128298    0.06056702   15.26412635
     atom  106 type  2   force =    -0.00932276   -0.06294781   15.26044206
     atom  107 type  2   force =     0.04653595    0.00949287   15.22623711
     atom  108 type  2   force =     0.05916323    0.02343192   15.26047318
     atom  109 type  2   force =     0.01601279    0.03841798   15.23901776
     atom  110 type  2   force =     0.02520390   -0.03305675   15.23897366
     atom  111 type  2   force =    -0.05178753   -0.03141073   15.26411709
     atom  112 type  2   force =    -0.04132611   -0.00534177   15.23899553
     atom  113 type  2   force =     0.05306196   -0.02918572   15.26416073
     atom  114 type  2   force =    -0.04988608    0.03947712   15.26046123
     The local contribution  to forces
     atom    1 type  1   force =     0.00226208    0.00548444  133.77197350
     atom    2 type  1   force =    -0.00091249    0.00688479  133.77377311
     atom    3 type  1   force =     0.00334850    0.00318852  133.78339967
     atom    4 type  1   force =     0.00591606   -0.00359139  133.77377317
     atom    5 type  1   force =    -0.00532092    0.00180264  133.78339963
     atom    6 type  1   force =     0.00084365   -0.00473079  133.78339970
     atom    7 type  1   force =     0.00324412   -0.00535893  133.77197359
     atom    8 type  1   force =    -0.00726158    0.00000941  133.77197343
     atom    9 type  1   force =    -0.00600683   -0.00315833  133.77377318
     atom   10 type  1   force =     0.00019487   -0.00404766  133.76667063
     atom   11 type  1   force =     0.00236730    0.00256313  133.76592958
     atom   12 type  1   force =     0.00000000    0.00000000  133.76775550
     atom   13 type  1   force =    -0.00322558    0.00078941  133.76592963
     atom   14 type  1   force =    -0.00146784   -0.00109272  133.75646969
     atom   15 type  1   force =    -0.00008749    0.00195352  133.75646967
     atom   16 type  1   force =     0.00353129    0.00224774  133.76667064
     atom   17 type  1   force =     0.00180601   -0.00073072  133.75646969
     atom   18 type  1   force =    -0.00347541    0.00205537  133.76667071
     atom   19 type  1   force =     0.00110901   -0.00309708  133.76592964
     atom   20 type  1   force =     0.00332356    0.00107717 -133.76577259
     atom   21 type  1   force =    -0.00368066    0.00185918 -133.76646481
     atom   22 type  1   force =     0.00186186   -0.00097384 -133.75637960
     atom   23 type  1   force =    -0.00171204   -0.00102287 -133.75637961
     atom   24 type  1   force =    -0.00072074   -0.00321725 -133.76577265
     atom   25 type  1   force =    -0.00000000    0.00000000 -133.76759231
     atom   26 type  1   force =     0.00040432   -0.00409133 -133.76646487
     atom   27 type  1   force =    -0.00002447    0.00212679 -133.75637961
     atom   28 type  1   force =     0.00340171    0.00248760 -133.76646489
     atom   29 type  1   force =     0.00632225    0.00047844 -133.77172281
     atom   30 type  1   force =    -0.00247746    0.00239555 -133.76577260
     atom   31 type  1   force =    -0.00042281    0.00716478 -133.77352304
     atom   32 type  1   force =     0.00445651    0.00247604 -133.78296690
     atom   33 type  1   force =     0.00553792   -0.00301086 -133.77352310
     atom   34 type  1   force =    -0.00338984    0.00519652 -133.77172280
     atom   35 type  1   force =    -0.00418934    0.00264628 -133.78296688
     atom   36 type  1   force =    -0.00127034   -0.00486194 -133.78296668
     atom   37 type  1   force =    -0.00611803   -0.00401901 -133.77352303
     atom   38 type  1   force =    -0.00330849   -0.00554006 -133.77172264
     atom   39 type  2   force =     0.05988449   -0.02312049   15.54686485
     atom   40 type  2   force =    -0.04339274    0.02616030   15.55024211
     atom   41 type  2   force =     0.01841478   -0.03520956   15.52630463
     atom   42 type  2   force =    -0.03972830    0.00160879   15.52630432
     atom   43 type  2   force =    -0.04997403   -0.04031322   15.54686452
     atom   44 type  2   force =    -0.00099200   -0.05061344   15.55024299
     atom   45 type  2   force =     0.02125907    0.03361388   15.52630417
[...]
     atom    7 type  1   force =     0.00004451    0.00004201    0.00003556
     atom    8 type  1   force =     0.00001410   -0.00005951    0.00003569
     atom    9 type  1   force =     0.00000261   -0.00003685    0.00004888
     atom   10 type  1   force =     0.00001675    0.00001169    0.00005444
     atom   11 type  1   force =     0.00000247    0.00004946    0.00003386
     atom   12 type  1   force =     0.00000001   -0.00000006    0.00001443
     atom   13 type  1   force =    -0.00004402   -0.00002259    0.00003371
     atom   14 type  1   force =    -0.00001278   -0.00000520    0.00006545
     atom   15 type  1   force =     0.00000203    0.00001373    0.00006558
     atom   16 type  1   force =    -0.00001848    0.00000863    0.00005451
     atom   17 type  1   force =     0.00001077   -0.00000854    0.00006560
     atom   18 type  1   force =     0.00000180   -0.00002028    0.00005448
     atom   19 type  1   force =     0.00004161   -0.00002687    0.00003384
     atom   20 type  1   force =     0.00000320    0.00001811   -0.00007021
     atom   21 type  1   force =    -0.00000968   -0.00002715   -0.00009276
     atom   22 type  1   force =     0.00002464    0.00000511   -0.00009851
     atom   23 type  1   force =    -0.00000769   -0.00002363   -0.00009850
     atom   24 type  1   force =     0.00001381   -0.00001174   -0.00006975
     atom   25 type  1   force =    -0.00000006    0.00000002   -0.00005426
     atom   26 type  1   force =     0.00002823    0.00000536   -0.00009284
     atom   27 type  1   force =    -0.00001651    0.00001874   -0.00009862
     atom   28 type  1   force =    -0.00001887    0.00002157   -0.00009310
     atom   29 type  1   force =    -0.00001261    0.00002674   -0.00007135
     atom   30 type  1   force =    -0.00001722   -0.00000634   -0.00007022
     atom   31 type  1   force =    -0.00002365    0.00000490   -0.00009371
     atom   32 type  1   force =    -0.00000965    0.00001856   -0.00009945
     atom   33 type  1   force =     0.00001594    0.00001800   -0.00009394
     atom   34 type  1   force =    -0.00001671   -0.00002443   -0.00007107
     atom   35 type  1   force =    -0.00001141   -0.00001789   -0.00009942
     atom   36 type  1   force =     0.00002097   -0.00000080   -0.00009917
     atom   37 type  1   force =     0.00000772   -0.00002278   -0.00009407
     atom   38 type  1   force =     0.00002941   -0.00000234   -0.00007122
     atom   39 type  2   force =    -0.00000548    0.00000517    0.00000032
     atom   40 type  2   force =    -0.00000847    0.00000368    0.00001343
     atom   41 type  2   force =    -0.00000935    0.00000017    0.00002052
     atom   42 type  2   force =     0.00000483    0.00000799    0.00002050
     atom   43 type  2   force =     0.00000718    0.00000217    0.00000035
     atom   44 type  2   force =     0.00000102   -0.00000915    0.00001340
     atom   45 type  2   force =     0.00000452   -0.00000819    0.00002051
     atom   46 type  2   force =     0.00000741    0.00000548    0.00001345
     atom   47 type  2   force =     0.00000432    0.00001290   -0.00001914
     atom   48 type  2   force =    -0.00000173   -0.00000731    0.00000033
     atom   49 type  2   force =     0.00000043   -0.00000462    0.00001826
     atom   50 type  2   force =     0.00000248    0.00000234    0.00001436
     atom   51 type  2   force =    -0.00001332   -0.00000269   -0.00001915
     atom   52 type  2   force =    -0.00000328    0.00000101    0.00001437
     atom   53 type  2   force =    -0.00000000    0.00000002    0.00002276
     atom   54 type  2   force =    -0.00000419    0.00000195    0.00001826
     atom   55 type  2   force =     0.00000377    0.00000269    0.00001826
     atom   56 type  2   force =     0.00000077   -0.00000330    0.00001436
     atom   57 type  2   force =     0.00000901   -0.00001021   -0.00001911
     atom   58 type  2   force =    -0.00001094    0.00001259    0.00002356
     atom   59 type  2   force =    -0.00001552    0.00000418    0.00001502
     atom   60 type  2   force =    -0.00000986    0.00000129    0.00001123
     atom   61 type  2   force =     0.00000605    0.00000791    0.00001123
     atom   62 type  2   force =     0.00001643    0.00000315    0.00002355
     atom   63 type  2   force =     0.00000411   -0.00001553    0.00001505
     atom   64 type  2   force =     0.00000381   -0.00000918    0.00001126
     atom   65 type  2   force =     0.00001137    0.00001134    0.00001505
     atom   66 type  2   force =     0.00000743    0.00001996    0.00003398
     atom   67 type  2   force =    -0.00000545   -0.00001578    0.00002355
     atom   68 type  2   force =    -0.00000378   -0.00000410    0.00001220
     atom   69 type  2   force =     0.00000301    0.00001273    0.00001290
     atom   70 type  2   force =    -0.00002100   -0.00000354    0.00003394
     atom   71 type  2   force =    -0.00001253   -0.00000377    0.00001288
     atom   72 type  2   force =    -0.00000002   -0.00000004    0.00001007
     atom   73 type  2   force =    -0.00000166    0.00000531    0.00001221
     atom   74 type  2   force =     0.00000544   -0.00000123    0.00001218
     atom   75 type  2   force =     0.00000953   -0.00000900    0.00001285
     atom   76 type  2   force =     0.00001353   -0.00001639    0.00003398
     atom   77 type  2   force =    -0.00000061    0.00000194   -0.00003032
     atom   78 type  2   force =     0.00000839   -0.00000302   -0.00003116
     atom   79 type  2   force =    -0.00000459   -0.00001387   -0.00003657
     atom   80 type  2   force =     0.00001428    0.00000293   -0.00003660
     atom   81 type  2   force =     0.00000002   -0.00000001   -0.00002409
     atom   82 type  2   force =    -0.00000685   -0.00000571   -0.00003111
     atom   83 type  2   force =     0.00000192   -0.00000049   -0.00003017
     atom   84 type  2   force =    -0.00000155    0.00000881   -0.00003116
     atom   85 type  2   force =    -0.00000969    0.00001090   -0.00003658
     atom   86 type  2   force =    -0.00000467    0.00000737   -0.00003713
     atom   87 type  2   force =    -0.00000211    0.00000594   -0.00003958
     atom   88 type  2   force =    -0.00000142   -0.00000147   -0.00003028
     atom   89 type  2   force =    -0.00000404   -0.00000481   -0.00003965
     atom   90 type  2   force =    -0.00000031    0.00000075   -0.00004864
     atom   91 type  2   force =     0.00000082   -0.00000013   -0.00004869
     atom   92 type  2   force =    -0.00000404   -0.00000776   -0.00003704
     atom   93 type  2   force =    -0.00000055   -0.00000064   -0.00004861
     atom   94 type  2   force =     0.00000878    0.00000040   -0.00003718
     atom   95 type  2   force =     0.00000621   -0.00000109   -0.00003967
     atom   96 type  2   force =    -0.00000648    0.00000228   -0.00001219
     atom   97 type  2   force =     0.00000016    0.00000050   -0.00001870
     atom   98 type  2   force =    -0.00000234   -0.00001187   -0.00001446
     atom   99 type  2   force =     0.00001146    0.00000387   -0.00001449
     atom  100 type  2   force =     0.00000002    0.00000001   -0.00003043
     atom  101 type  2   force =     0.00000040   -0.00000038   -0.00001863
     atom  102 type  2   force =     0.00000520    0.00000448   -0.00001212
     atom  103 type  2   force =    -0.00000050   -0.00000013   -0.00001874
     atom  104 type  2   force =    -0.00000910    0.00000796   -0.00001446
     atom  105 type  2   force =    -0.00000192    0.00001421   -0.00001027
     atom  106 type  2   force =    -0.00000567    0.00001414   -0.00000500
     atom  107 type  2   force =     0.00000127   -0.00000673   -0.00001214
     atom  108 type  2   force =    -0.00000938   -0.00001198   -0.00000498
     atom  109 type  2   force =    -0.00000240   -0.00000044    0.00000242
     atom  110 type  2   force =     0.00000083    0.00000233    0.00000245
     atom  111 type  2   force =    -0.00001138   -0.00000877   -0.00001024
     atom  112 type  2   force =     0.00000158   -0.00000185    0.00000246
     atom  113 type  2   force =     0.00001329   -0.00000545   -0.00001028
     atom  114 type  2   force =     0.00001506   -0.00000212   -0.00000497

     Total force =     0.003207     Total SCF correction =     0.000525
     SCF correction compared to forces is large: reduce conv_thr to get better values

     bfgs converged in  31 scf cycles and  30 bfgs steps
     (criteria: energy <  1.0E-04 Ry, force <  1.0E-03 Ry/Bohr)

     End of BFGS Geometry Optimization

     Final energy   =   -9342.5023939475 Ry

     File ../out/twse2_13.bfgs deleted, as requested
Begin final coordinates

ATOMIC_POSITIONS (alat)
W            -0.2892993376        0.7747272173       -0.0216301072
W            -0.2631175545        0.5472825281       -0.0226117343
W            -0.0786996245        0.6836297352       -0.0218878550
W             0.1055197503        0.8202513751       -0.0226117343
W            -0.0526901994        0.4560542659       -0.0218878550
W             0.1313907239        0.5923665989       -0.0218878550
W             0.3155834187        0.7292028953       -0.0216301072
W            -0.0262826811        0.2281205874       -0.0216301072
W             0.1575986042        0.3645167968       -0.0226117343
W             0.3416707172        0.5012499647       -0.0233090925
W             0.5261103638        0.6381319960       -0.0223304747
W             0.0000000000       -0.0000000000       -0.0209084795
W             0.1843061568        0.1365589257       -0.0223304747
W             0.3685102595        0.2732421469       -0.0242686084
W             0.5523794112        0.4102649755       -0.0242686084
W             0.3950693399        0.0452704945       -0.0233090925
W             0.5791101293        0.1825181776       -0.0242686084
W             0.7632597429        0.3195047408       -0.0233090925
W             0.7895832794        0.0913342784       -0.0223304747
W             0.8152772147        0.1366420407        0.4462995411
W             0.6047342214        0.0457044083        0.4473226900
W             0.6313283690        0.2733399125        0.4483789901
W             0.4210550740        0.1826089600        0.4483789901
W             0.2106968646        0.0916534451        0.4462995411
W             0.0000000000        0.0000000000        0.4450374934
W             0.6580515718        0.5008629736        0.4473226900
W             0.4476164571        0.4100764275        0.4483789901
W             0.2372141068        0.3194578181        0.4473226900
W             0.0262709861        0.2281873715        0.4457040124
W             0.4740258207        0.6377297142        0.4462995411
W             0.2634263626        0.5468130091        0.4466306821
W             0.0527273048        0.4558985213        0.4459717202
W            -0.1581585236        0.3644848134        0.4466306821
W             0.2892482983        0.7746830909        0.4457040124
W             0.0788165006        0.6837393087        0.4459717202
W            -0.1315430053        0.5924127700        0.4459717202
W            -0.1052670390        0.8207528775        0.4466306821
W            -0.3155189844        0.7291802376        0.4457040124
Se           -0.3423879040        0.6528869352        0.0930637134
Se           -0.1570561996        0.7904226493        0.0930513846
Se           -0.1319039738        0.5623540561        0.0934397942
Se            0.0529653157        0.6990812735        0.0934397942
Se            0.2366107586        0.8360987345        0.0930637134
Se           -0.1059975226        0.3347987318        0.0930513846
Se            0.0789394581        0.4706152704        0.0934397942
Se            0.2630545222        0.6068293189        0.0930513846
Se            0.4471081439        0.7437876322        0.0937573047
Se            0.1057773455        0.2430650303        0.0930637134
Se            0.2898306588        0.3790127187        0.0910473838
Se            0.4732147026        0.5156389205        0.0911520012
Se            0.1323068175        0.0153131455        0.0937573047
Se            0.3168361164        0.1519963931        0.0911520012
Se            0.5000000000        0.2886751000        0.0899796861
Se            0.6833192479        0.4255181687        0.0910473838
Se            0.5268498933        0.0614944127        0.0910473838
Se            0.7099490811        0.1983898864        0.0911520012
Se            0.9205849386        0.1069244223        0.0937573047
Se           -0.3422390444        0.6535602475       -0.1371410542
Se           -0.1580660849        0.7894467997       -0.1372085954
Se           -0.1313564804        0.5622750563       -0.1371282436
Se            0.0526231532        0.6986466303       -0.1371282436
Se            0.2371194343        0.8356331621       -0.1371410542
Se           -0.1046474693        0.3344120702       -0.1372085954
Se            0.0787341273        0.4711289134       -0.1371282436
Se            0.2627143542        0.6081918301       -0.1372085954
Se            0.4471247368        0.7449477081       -0.1364851057
Se            0.1051198101        0.2428572904       -0.1371410542
Se            0.2890547583        0.3797868477       -0.1382865781
Se            0.4733263386        0.5169883622       -0.1382112447
Se            0.1312938659        0.0147474774       -0.1364851057
Se            0.3156116475        0.1514183518       -0.1382112447
Se            0.5000000000        0.2886751000       -0.1391471725
Se            0.6843776135        0.4258030537       -0.1382865781
Se            0.5265674282        0.0604353986       -0.1382865781
Se            0.7110619138        0.1976184859       -0.1382112447
Se            0.9215812974        0.1063300145       -0.1364851057
Se            0.8685687552        0.0148783757        0.5601758554
Se            0.6843297535        0.1514564442        0.5624011050
Se            0.4734822327        0.0605360115        0.5626767417
Se            0.7108331279        0.3797796355        0.5626767417
Se            0.5000000000        0.2886751000        0.5638717288
Se            0.2890002247        0.1976501014        0.5624011050
Se            0.0786006034        0.1063834524        0.5601758554
Se            0.5266698219        0.5169186544        0.5624011050
Se            0.3156845393        0.4257096530        0.5626767417
Se            0.1048945591        0.3343815858        0.5609872341
Se           -0.1052784661        0.2428537085        0.5607857968
Se            0.5528304414        0.7447633719        0.5601758554
Se            0.3423217245        0.6534245517        0.5607857968
Se            0.1315013913        0.5621961731        0.5607994444
Se           -0.0788741475        0.4710436379        0.5607994444
Se            0.1579696904        0.7896759413        0.5609872341
Se           -0.0526263438        0.6988107890        0.5607994444
Se           -0.2628634495        0.6079931729        0.5609872341
Se           -0.2370430583        0.8357724398        0.5607857968
Se            0.8675479073        0.0153590517        0.3307728803
Se            0.6828790418        0.1522909760        0.3325004199
Se            0.4732690370        0.0618764315        0.3325463426
Se            0.7097788880        0.3789247926        0.3325463426
Se            0.5000000000        0.2886751000        0.3336023338
Se            0.2904483061        0.1984891886        0.3325004199
Se            0.0795273049        0.1070271946        0.3307728803
Se            0.5266724520        0.5152450354        0.3325004199
Se            0.3169519749        0.4252240759        0.3325463426
Se            0.1063836736        0.3346805463        0.3313699016
Se           -0.1060952067        0.2431217670        0.3312985090
Se            0.5529245878        0.7436389537        0.3307728803
Se            0.3424979493        0.6525832043        0.3312985090
Se            0.1321057535        0.5621998233        0.3311092486
Se           -0.0791731675        0.4705184199        0.3311092486
Se            0.1569662257        0.7908160720        0.3313699016
Se           -0.0529316860        0.6993323569        0.3311092486
Se           -0.2633490993        0.6065540817        0.3313699016
Se           -0.2364025426        0.8363457287        0.3312985090
End final coordinates



     Writing output data file ../out/twse2_13.save/

     init_run     :    310.10s CPU    311.22s WALL (       1 calls)
     electrons    : 322540.39s CPU 323957.82s WALL (      31 calls)
     update_pot   :    193.95s CPU    127.93s WALL (      30 calls)
     forces       :   5800.29s CPU   5694.44s WALL (      31 calls)

     Called by init_run:
     wfcinit      :    269.11s CPU    271.65s WALL (       1 calls)
     wfcinit:atom :      0.07s CPU      0.11s WALL (       1 calls)
     wfcinit:wfcr :    268.12s CPU    270.41s WALL (       1 calls)
     potinit      :     28.16s CPU     27.36s WALL (       1 calls)
     hinit0       :      3.33s CPU      2.63s WALL (       1 calls)

     Called by electrons:
     c_bands      : 290802.84s CPU 292156.16s WALL (     464 calls)
     sum_band     :  26695.98s CPU  26784.35s WALL (     464 calls)
     v_of_rho     :   1034.07s CPU    976.34s WALL (     481 calls)
     v_h          :     13.25s CPU     12.49s WALL (     481 calls)
     v_xc         :   1085.91s CPU   1025.18s WALL (     512 calls)
     newd         :   4345.71s CPU   4359.36s WALL (     481 calls)
     mix_rho      :     24.99s CPU     27.12s WALL (     464 calls)
     vdW_kernel   :     24.58s CPU     24.58s WALL (       1 calls)

     Called by c_bands:
     init_us_2    :    184.20s CPU     87.73s WALL (     929 calls)
     cegterg      : 289971.68s CPU 291725.21s WALL (     464 calls)

     Called by sum_band:
     sum_band:wei :      0.01s CPU      0.01s WALL (     464 calls)
     sum_band:loo :  21919.54s CPU  22114.48s WALL (     464 calls)
     sum_band:buf :      0.00s CPU      0.04s WALL (     464 calls)
     sum_band:ini :     92.44s CPU     42.64s WALL (     464 calls)
     sum_band:cal :  17575.97s CPU  17611.29s WALL (     464 calls)
     sum_band:bec :     82.89s CPU     80.18s WALL (     464 calls)
     addusdens    :   4744.01s CPU   4618.71s WALL (     464 calls)
     addusd:skk   :     36.45s CPU     38.46s WALL (     928 calls)
     addusd:dgemm :   3779.15s CPU   3868.31s WALL (     928 calls)
     addusd:qvan2 :    844.86s CPU    652.56s WALL (     928 calls)

     Called by *egterg:
     cdiaghg      :  15952.20s CPU  15970.82s WALL (    3056 calls)
     cegterg:over :  28549.19s CPU  28638.00s WALL (    2636 calls)
     cegterg:upda :   9400.19s CPU   9411.38s WALL (    2636 calls)
     cegterg:last :  42189.20s CPU  42177.22s WALL (    1267 calls)
     h_psi        : 132036.82s CPU 133657.23s WALL (    3101 calls)
     s_psi        :  54187.24s CPU  54273.03s WALL (    3101 calls)
     g_psi        :     67.49s CPU     17.98s WALL (    2636 calls)

     Called by h_psi:
     h_psi:calbec :  54955.12s CPU  55104.84s WALL (    3101 calls)
     vloc_psi     :  22823.75s CPU  24256.81s WALL (    3101 calls)
     add_vuspsi   :  54182.82s CPU  54250.62s WALL (    3101 calls)

     General routines
     calbec       :  77233.41s CPU  77427.03s WALL (    3689 calls)
     fft          :    745.08s CPU    693.67s WALL (   31276 calls)
     ffts         :     11.58s CPU     13.79s WALL (     464 calls)
     fftw         :  24162.08s CPU  25481.20s WALL ( 1662136 calls)

     Parallel routines
     fft_scatt_xy :   2232.28s CPU   2000.36s WALL ( 1693876 calls)
     fft_scatt_yz :   8758.78s CPU  10677.02s WALL ( 1693876 calls)

     PWSCF        :   3d19h25m CPU   3d19h46m WALL


   This run was terminated on:   6: 8:52   6Mar2021            

=------------------------------------------------------------------------------=
   JOB DONE.
=------------------------------------------------------------------------------=
